 Gaussian 16, Revision A.03,
 Gaussian 16:  ES64L-G16RevA.03 25-Dec-2016

 -----------------------------------------
 # wB97XD/aug-cc-pVDZ opt=(MaxStep=1) freq
 -----------------------------------------

 ----
 blah
 ----
 Symbolic Z-matrix:
 Charge =  1 Multiplicity = 1

 SCF Done:  E(RwB97XD) =  -881.374615352     A.U. after   15 cycles
 SCF Done:  E(RwB97XD) =  -881.376283214     A.U. after    8 cycles
 SCF Done:  E(RwB97XD) =  -881.379734301     A.U. after   13 cycles
 SCF Done:  E(RwB97XD) =  -881.386442729     A.U. after   13 cycles
 SCF Done:  E(RwB97XD) =  -881.396419729     A.U. after   13 cycles
 SCF Done:  E(RwB97XD) =  -881.405545818     A.U. after   13 cycles
 SCF Done:  E(RwB97XD) =  -881.413613129     A.U. after   13 cycles
 SCF Done:  E(RwB97XD) =  -881.420332879     A.U. after   13 cycles
 SCF Done:  E(RwB97XD) =  -881.425308894     A.U. after   13 cycles
 SCF Done:  E(RwB97XD) =  -881.427989344     A.U. after   13 cycles
 SCF Done:  E(RwB97XD) =  -881.459422792     A.U. after   11 cycles
 SCF Done:  E(RwB97XD) =  -881.459423391     A.U. after   10 cycles
 SCF Done:  E(RwB97XD) =  -881.459423883     A.U. after   10 cycles
 SCF Done:  E(RwB97XD) =  -881.459424440     A.U. after   10 cycles
 SCF Done:  E(RwB97XD) =  -881.459424813     A.U. after   10 cycles
 SCF Done:  E(RwB97XD) =  -881.459425011     A.U. after    9 cycles
 SCF Done:  E(RwB97XD) =  -881.459425098     A.U. after    9 cycles
 SCF Done:  E(RwB97XD) =  -881.459425146     A.U. after    9 cycles
 SCF Done:  E(RwB97XD) =  -881.459425159     A.U. after    7 cycles
 Optimization completed.
    -- Stationary point found.
 Normal termination of Gaussian 16 at Thu May 18 02:22:43 2023.

 ----------------------------------------------------------------------
 #N Geom=AllCheck Guess=TCheck SCRF=Check GenChk RwB97XD/Aug-CC-pVDZ Fr
 eq
 ----------------------------------------------------------------------

 Structure from the checkpoint file:  "/gscratch/scrubbed/gds001/Gau-6914.chk"
 ----
 blah
 ----
 Charge =  1 Multiplicity = 1

                         Standard orientation:
 ---------------------------------------------------------------------
 Center     Atomic      Atomic             Coordinates (Angstroms)
 Number     Number       Type             X           Y           Z
 ---------------------------------------------------------------------
      1          7           0        1.369694   -1.813990    0.663290
      2          6           0        1.917281   -1.237664   -0.581849
      3          6           0        0.931328   -1.719025   -1.664086
      4          6           0        0.301095   -3.004962   -1.077093
      5          6           0        0.995452   -3.183237    0.276400
      6          6           0        2.111533    0.255929   -0.494109
      7          6           0        1.033123    1.101929   -0.240899
      8          7           0        1.133094    2.427368   -0.129296
      9          6           0        2.338303    2.988181   -0.285587
     10          6           0        3.478278    2.238984   -0.551943
     11          6           0        3.360844    0.854234   -0.650042
     12          8           0       -1.332985    3.189309    0.556508
     13          8           0       -0.974798   -0.884951    1.641110
     14          1           0        0.355476   -3.634073    1.044747
     15          1           0        0.451026   -3.877337   -1.720952
     16          1           0       -0.778171   -2.875742   -0.938328
     17          1           0        1.455755   -1.893867   -2.609174
     18          1           0        0.167060   -0.957029   -1.855722
     19          1           0        1.900935   -3.808844    0.177731
     20          1           0        2.906360   -1.696828   -0.770720
     21          1           0        0.031090    0.689546   -0.119974
     22          1           0        2.386805    4.073105   -0.193268
     23          1           0        4.440285    2.732950   -0.673904
     24          1           0        4.240871    0.240840   -0.847346
     25          6           0        2.309856   -1.769077    1.779003
     26          1           0       -0.369565    3.072829    0.301588
     27          1           0       -0.087495   -1.171323    1.253882
     28          1           0       -1.078991   -1.310521    2.494680
     29          1           0       -2.025934    1.936292    0.911490
     30          1           0       -1.398856    3.954835    1.132331
     31          8           0       -2.517642    1.044418    1.076926
     32          1           0       -3.117700    0.812848    0.293602
     33          1           0       -1.881535    0.282072    1.296337
     34          1           0        1.862500   -2.251997    2.656328
     35          1           0        2.536438   -0.727313    2.035024
     36          1           0        3.252656   -2.291147    1.538390
     37          8           0       -4.002241    0.436976   -0.907548
     38          1           0       -4.060944    1.023055   -1.666129
     39          1           0       -4.902995    0.081205   -0.757690
     40          8           0       -6.474708   -0.578634   -0.471399
     41          1           0       -7.221703   -0.132038   -0.064535
     42          1           0       -6.826451   -1.373867   -0.879888
 ---------------------------------------------------------------------

 SCF Done:  E(RwB97XD) =  -881.459425160     A.U. after    2 cycles

 The electronic state is 1-A.
 Alpha  occ. eigenvalues --  -19.43868 -19.40763 -19.40078 -19.39217 -19.39170
 Alpha  occ. eigenvalues --  -14.57862 -14.57427 -10.45313 -10.45051 -10.44533
 Alpha  occ. eigenvalues --  -10.43210 -10.42965 -10.42650 -10.42438 -10.42136
 Alpha  occ. eigenvalues --  -10.40166 -10.39662  -1.30079  -1.25427  -1.24049
 Alpha  occ. eigenvalues --   -1.23567  -1.23069  -1.17464  -1.16233  -1.03359
 Alpha  occ. eigenvalues --   -0.99940  -0.98862  -0.93094  -0.88468  -0.85015
 Alpha  occ. eigenvalues --   -0.83939  -0.79876  -0.79345  -0.78792  -0.78496
 Alpha  occ. eigenvalues --   -0.75862  -0.75667  -0.75561  -0.74230  -0.72108
 Alpha  occ. eigenvalues --   -0.70272  -0.69301  -0.68068  -0.65693  -0.64818
 Alpha  occ. eigenvalues --   -0.64279  -0.63585  -0.62667  -0.61432  -0.60973
 Alpha  occ. eigenvalues --   -0.60704  -0.59500  -0.59071  -0.58851  -0.58112
 Alpha  occ. eigenvalues --   -0.57718  -0.55852  -0.54692  -0.53956  -0.53811
 Alpha  occ. eigenvalues --   -0.53741  -0.53253  -0.52986  -0.52916  -0.51160
 Alpha  occ. eigenvalues --   -0.48259  -0.47592  -0.45035  -0.44000
 Alpha virt. eigenvalues --   -0.08176  -0.06884  -0.06378  -0.05065  -0.04466
 Alpha virt. eigenvalues --   -0.03977  -0.03607  -0.02712  -0.02635  -0.02107
 Alpha virt. eigenvalues --   -0.01687  -0.01475  -0.01063  -0.00506  -0.00162

 Mulliken charges:
               1
     1  N   -1.204498
     2  C    1.087053
     3  C    1.116173
     4  C    0.846632
     5  C    1.357121
     6  C    0.435095
     7  C    1.012250
     8  N   -0.545402
     9  C    0.260263
    10  C    0.528044
    11  C    1.313102
    12  O   -0.460388
    13  O   -0.563565
    14  H   -0.581820
    15  H   -0.284993
    16  H   -0.328696
    17  H   -0.537065
    18  H   -0.320491
    19  H   -0.524794
    20  H   -0.858233
    21  H   -1.317204
    22  H   -0.619575
    23  H   -0.607804
    24  H   -0.906203
    25  C    1.023251
    26  H    0.395404
    27  H    0.579305
    28  H    0.162389
    29  H    0.519592
    30  H    0.139572
    31  O   -0.482705
    32  H    0.463452
    33  H    0.457493
    34  H   -0.229679
    35  H   -0.160997
    36  H   -0.194910
    37  O   -0.353590
    38  H    0.141858
    39  H    0.275258
    40  O   -0.332810
    41  H    0.154183
    42  H    0.147929
 Sum of Mulliken charges =   1.00000

 Dipole moment (field-independent basis, Debye):
    X=             -5.2521    Y=              0.2067    Z=              0.5696  Tot=              5.2869
 Quadrupole moment (field-independent basis, Debye-Ang):
   XX=            -12.2176   YY=            -71.5121   ZZ=            -92.8892
   XY=              3.5415   XZ=              3.5988   YZ=              1.0829

  Exact polarizability: 185.626   8.458 195.949  -4.760   1.334 138.431
 Approx polarizability: 198.334   3.037 201.140  -7.531   3.119 156.018

                      1                      2                      3
                      A                      A                      A
 Frequencies --      8.2076                12.0324                20.7592
 Red. masses --      4.7246                 4.5301                 4.2338
 Frc consts  --      0.0002                 0.0004                 0.0011
 IR Inten    --      0.9481                 0.4833                 0.4966

                      4                      5                      6
                      A                      A                      A
 Frequencies --     37.6578                45.1144                53.6819
 Red. masses --      4.9198                 5.0029                 3.3832
 Frc consts  --      0.0041                 0.0060                 0.0057
 IR Inten    --      0.2430                 0.4709                 0.5708

                      7                      8                      9
                      A                      A                      A
 Frequencies --     63.5797                71.2180                78.0899
 Red. masses --      2.7845                 4.4389                 4.0318
 Frc consts  --      0.0066                 0.0133                 0.0145
 IR Inten    --      0.8150                 5.4384                 1.8097

                     10                     11                     12
                      A                      A                      A
 Frequencies --     88.2130               102.1411               103.7943
 Red. masses --      2.9925                 1.1136                 3.7771
 Frc consts  --      0.0137                 0.0068                 0.0240
 IR Inten    --     15.4182                 5.6733                 6.6228

                     13                     14                     15
                      A                      A                      A
 Frequencies --    117.3491               143.5812               152.4688
 Red. masses --      2.4454                 1.5234                 1.6837
 Frc consts  --      0.0198                 0.0185                 0.0231
 IR Inten    --     52.4671               122.8659               122.7926

                     16                     17                     18
                      A                      A                      A
 Frequencies --    169.8921               177.0076               206.2682
 Red. masses --      2.4547                 2.0134                 3.8364
 Frc consts  --      0.0417                 0.0372                 0.0962
 IR Inten    --      8.3640                 6.8480                31.0457

                     19                     20                     21
                      A                      A                      A
 Frequencies --    219.5971               234.4782               252.4449
 Red. masses --      3.9724                 4.3989                 1.1822
 Frc consts  --      0.1129                 0.1425                 0.0444
 IR Inten    --     21.0126                46.8289                 1.3008

                     22                     23                     24
                      A                      A                      A
 Frequencies --    263.8060               267.2798               273.2180
 Red. masses --      2.4959                 1.0877                 1.1958
 Frc consts  --      0.1023                 0.0458                 0.0526
 IR Inten    --      1.6731                65.3445                 4.0552

                     25                     26                     27
                      A                      A                      A
 Frequencies --    291.0278               321.3506               340.6240
 Red. masses --      1.2057                 3.9783                 4.8516
 Frc consts  --      0.0602                 0.2421                 0.3317
 IR Inten    --    111.1215                 8.9452                 2.3613

                     28                     29                     30
                      A                      A                      A
 Frequencies --    367.7160               377.0461               403.2185
 Red. masses --      4.6400                 4.1956                 2.8989
 Frc consts  --      0.3696                 0.3514                 0.2777
 IR Inten    --     97.4043                94.8607                 0.6344

                     31                     32                     33
                      A                      A                      A
 Frequencies --    418.5010               435.4929               507.6776
 Red. masses --      3.1658                 3.2923                 1.0965
 Frc consts  --      0.3267                 0.3679                 0.1665
 IR Inten    --      1.1174                21.3279                55.6687

                     34                     35                     36
                      A                      A                      A
 Frequencies --    545.0514               577.9104               621.9853
 Red. masses --      3.7477                 2.7155                 1.1769
 Frc consts  --      0.6560                 0.5343                 0.2683
 IR Inten    --      3.0561                 2.2976                34.6352

                     37                     38                     39
                      A                      A                      A
 Frequencies --    636.6780               658.7176               673.0104
 Red. masses --      2.6131                 4.7219                 1.2552
 Frc consts  --      0.6241                 1.2072                 0.3350
 IR Inten    --      2.8238                30.5307                48.3371

                     40                     41                     42
                      A                      A                      A
 Frequencies --    677.5176               735.0314               781.0087
 Red. masses --      4.4849                 1.8813                 1.5119
 Frc consts  --      1.2130                 0.5989                 0.5434
 IR Inten    --      4.6758                25.7214                11.9445

                     43                     44                     45
                      A                      A                      A
 Frequencies --    789.5909               799.5757               835.5646
 Red. masses --      1.0270                 1.0524                 1.6170
 Frc consts  --      0.3772                 0.3964                 0.6651
 IR Inten    --     19.7390               110.7599                28.5906

                     46                     47                     48
                      A                      A                      A
 Frequencies --    845.9134               921.9262               931.6964
 Red. masses --      2.2998                 1.2400                 1.8530
 Frc consts  --      0.9696                 0.6209                 0.9477
 IR Inten    --     12.4824                24.8672                25.7663

                     49                     50                     51
                      A                      A                      A
 Frequencies --    938.0087               952.2537               959.0733
 Red. masses --      2.1568                 1.8304                 1.5048
 Frc consts  --      1.1181                 0.9779                 0.8155
 IR Inten    --     13.3898                 3.0264                19.5382

                     52                     53                     54
                      A                      A                      A
 Frequencies --    966.9552               985.3138               993.8686
 Red. masses --      1.1758                 1.3905                 1.0943
 Frc consts  --      0.6477                 0.7953                 0.6369
 IR Inten    --     27.2137                 3.9739                18.9701

                     55                     56                     57
                      A                      A                      A
 Frequencies --   1007.3216              1024.3526              1055.5556
 Red. masses --      1.9251                 1.4049                 5.0823
 Frc consts  --      1.1509                 0.8685                 3.3363
 IR Inten    --     11.4273                 0.0822                 7.4500

                     58                     59                     60
                      A                      A                      A
 Frequencies --   1058.8065              1071.9006              1092.2082
 Red. masses --      2.3447                 1.8347                 1.8401
 Frc consts  --      1.5487                 1.2420                 1.2933
 IR Inten    --      6.3557                13.4005                17.8720

                     61                     62                     63
                      A                      A                      A
 Frequencies --   1106.9850              1118.1601              1144.7153
 Red. masses --      1.1276                 2.2464                 1.2687
 Frc consts  --      0.8141                 1.6548                 0.9795
 IR Inten    --     39.7356                 9.6332                 5.7024

                     64                     65                     66
                      A                      A                      A
 Frequencies --   1153.2027              1192.5676              1217.9934
 Red. masses --      1.4009                 2.0123                 1.5294
 Frc consts  --      1.0977                 1.6862                 1.3368
 IR Inten    --     19.3176                16.4856                14.3795

                     67                     68                     69
                      A                      A                      A
 Frequencies --   1237.8485              1243.3438              1259.1643
 Red. masses --      1.4468                 1.8374                 1.6522
 Frc consts  --      1.3062                 1.6736                 1.5434
 IR Inten    --      3.8988                12.4806                 4.1773

                     70                     71                     72
                      A                      A                      A
 Frequencies --   1262.3448              1285.0284              1288.4355
 Red. masses --      1.6722                 1.2379                 1.3800
 Frc consts  --      1.5700                 1.2044                 1.3497
 IR Inten    --     11.9893               150.2975               114.7205

                     73                     74                     75
                      A                      A                      A
 Frequencies --   1300.7379              1318.4651              1331.2788
 Red. masses --      1.3620                 3.9350                 1.3615
 Frc consts  --      1.3577                 4.0302                 1.4217
 IR Inten    --      7.0269                 0.1383                 3.4480

                     76                     77                     78
                      A                      A                      A
 Frequencies --   1364.3434              1372.0848              1382.2203
 Red. masses --      1.3364                 1.4680                 1.4935
 Frc consts  --      1.4656                 1.6283                 1.6812
 IR Inten    --      3.6902                 2.9745                 5.2410

                     79                     80                     81
                      A                      A                      A
 Frequencies --   1411.8782              1448.6954              1481.7289
 Red. masses --      1.6195                 1.2020                 1.4377
 Frc consts  --      1.9021                 1.4863                 1.8598
 IR Inten    --      4.6497                 2.1575                21.0764

                     82                     83                     84
                      A                      A                      A
 Frequencies --   1484.0431              1487.3920              1491.4393
 Red. masses --      1.3497                 1.0992                 1.0772
 Frc consts  --      1.7513                 1.4328                 1.4117
 IR Inten    --     21.5984                 2.4270                 7.3806

                     85                     86                     87
                      A                      A                      A
 Frequencies --   1506.1529              1520.5393              1533.8172
 Red. masses --      1.0948                 1.1640                 2.1983
 Frc consts  --      1.4632                 1.5856                 3.0471
 IR Inten    --     12.3961                 8.0040                 8.3814

                     88                     89                     90
                      A                      A                      A
 Frequencies --   1629.7854              1644.4786              1653.9326
 Red. masses --      1.0869                 1.1265                 1.0833
 Frc consts  --      1.7009                 1.7949                 1.7459
 IR Inten    --     86.5802                13.8331                20.7643

                     91                     92                     93
                      A                      A                      A
 Frequencies --   1667.5310              1686.6759              1699.5753
 Red. masses --      3.9990                 3.1798                 1.2794
 Frc consts  --      6.5516                 5.3299                 2.1774
 IR Inten    --     12.6570                 7.1252                25.8193

                     94                     95                     96
                      A                      A                      A
 Frequencies --   1706.4284              1739.2364              2525.4835
 Red. masses --      1.0516                 1.0617                 1.1197
 Frc consts  --      1.8041                 1.8922                 4.2075
 IR Inten    --      1.3410                 6.3980              2241.0664

                     97                     98                     99
                      A                      A                      A
 Frequencies --   2758.6062              2935.9994              2970.8849
 Red. masses --      1.1007                 1.0667                 1.0555
 Frc consts  --      4.9350                 5.4175                 5.4891
 IR Inten    --   4321.8397              1084.6989               336.3210

                    100                    101                    102
                      A                      A                      A
 Frequencies --   2985.0571              3004.0444              3015.7217
 Red. masses --      1.0765                 1.0598                 1.0616
 Frc consts  --      5.6516                 5.6349                 5.6884
 IR Inten    --     34.4993                12.5305               116.8329

                    103                    104                    105
                      A                      A                      A
 Frequencies --   3073.0200              3092.3094              3102.3707
 Red. masses --      1.0717                 1.0633                 1.0659
 Frc consts  --      5.9630                 5.9906                 6.0442
 IR Inten    --   2108.9754                14.8283                24.7253

                    106                    107                    108
                      A                      A                      A
 Frequencies --   3107.3740              3119.5121              3144.7067
 Red. masses --      1.0886                 1.0920                 1.1049
 Frc consts  --      6.1930                 6.2613                 6.4375
 IR Inten    --     21.4076                38.6845                 0.0427

                    109                    110                    111
                      A                      A                      A
 Frequencies --   3147.5925              3162.3095              3201.4332
 Red. masses --      1.1046                 1.1054                 1.0914
 Frc consts  --      6.4475                 6.5130                 6.5904
 IR Inten    --     15.4404                23.0052                 1.2537

                    112                    113                    114
                      A                      A                      A
 Frequencies --   3207.2801              3213.2685              3238.8551
 Red. masses --      1.0897                 1.0927                 1.0986
 Frc consts  --      6.6043                 6.6475                 6.7898
 IR Inten    --     17.4700                 9.5430                 2.2887

                    115                    116                    117
                      A                      A                      A
 Frequencies --   3553.4126              3878.4846              3934.8780
 Red. masses --      1.0613                 1.0450                 1.0664
 Frc consts  --      7.8955                 9.2618                 9.7280
 IR Inten    --    874.6684                32.4872               122.9322

                    118                    119                    120
                      A                      A                      A
 Frequencies --   3938.0492              3941.9739              3984.9344
 Red. masses --      1.0683                 1.0663                 1.0833
 Frc consts  --      9.7608                 9.7621                10.1356
 IR Inten    --    101.2872               100.1473               121.1502

 - Thermochemistry -
 -------------------
 Temperature   298.150 Kelvin.  Pressure   1.00000 Atm.
 Atom     1 has atomic number  7 and mass  14.00307

 Molecular mass:   253.17635 amu.
 Principal axes and moments of inertia in atomic units:
                           1         2         3
     Eigenvalues --  4329.397907645.24484**********
           X            0.99989  -0.01347   0.00571
           Y            0.01346   0.99991   0.00186
           Z           -0.00573  -0.00178   0.99998
 This molecule is an asymmetric top.
 Rotational symmetry number  1.
 Warning -- assumption of classical behavior for rotation
           may cause significant error
 Rotational temperatures (Kelvin)      0.02001     0.01133     0.00844
 Rotational constants (GHZ):           0.41686     0.23606     0.17588
 Zero-point vibrational energy     959232.5 (Joules/Mol)
                                  229.26206 (Kcal/Mol)
 Warning -- explicit consideration of  35 degrees of freedom as
           vibrations may cause significant error
 Vibrational temperatures:     11.81    17.31    29.87    54.18    64.91
          (Kelvin)             77.24    91.48   102.47   112.35   126.92
                              146.96   149.34   168.84   206.58   219.37
                              244.44   254.67   296.77   315.95   337.36
                              363.21   379.56   384.56   393.10   418.72
                              462.35   490.08   529.06   542.49   580.14
                              602.13   626.58   730.43   784.21   831.48
                              894.90   916.04   947.75   968.31   974.80
                             1057.55  1123.70  1136.05  1150.41  1202.19
                             1217.08  1326.45  1340.50  1349.59  1370.08
                             1379.89  1391.23  1417.65  1429.96  1449.31
                             1473.81  1518.71  1523.39  1542.23  1571.44
                             1592.70  1608.78  1646.99  1659.20  1715.84
                             1752.42  1780.99  1788.89  1811.66  1816.23
                             1848.87  1853.77  1871.47  1896.98  1915.41
                             1962.99  1974.12  1988.71  2031.38  2084.35
                             2131.88  2135.21  2140.03  2145.85  2167.02
                             2187.72  2206.82  2344.90  2366.04  2379.64
                             2399.21  2426.75  2445.31  2455.17  2502.37
                             3633.61  3969.02  4224.25  4274.44  4294.83
                             4322.15  4338.95  4421.39  4449.14  4463.62
                             4470.82  4488.28  4524.53  4528.68  4549.86
                             4606.15  4614.56  4623.18  4659.99  5112.57
                             5580.27  5661.41  5665.97  5671.62  5733.43

 Zero-point correction=                           0.365352 (Hartree/Particle)
 Thermal correction to Energy=                    0.390039
 Thermal correction to Enthalpy=                  0.390983
 Thermal correction to Gibbs Free Energy=         0.306053
 Sum of electronic and zero-point Energies=           -881.094073
 Sum of electronic and thermal Energies=              -881.069386
 Sum of electronic and thermal Enthalpies=            -881.068442
 Sum of electronic and thermal Free Energies=         -881.153372

                     E (Thermal)             CV                S
                      KCal/Mol        Cal/Mol-Kelvin    Cal/Mol-Kelvin
 Total                  244.753             85.373            178.749
 Electronic               0.000              0.000              0.000
 Translational            0.889              2.981             42.487
 Rotational               0.889              2.981             34.184
 Vibrational            242.976             79.411            102.078
 Vibration     1          0.593              1.987              8.404
 Vibration     2          0.593              1.987              7.643
 Vibration     3          0.593              1.986              6.560
 Vibration     4          0.594              1.982              5.379
 Vibration     5          0.595              1.979              5.021
 Vibration     6          0.596              1.976              4.677
 Vibration     7          0.597              1.972              4.343
 Vibration     8          0.598              1.968              4.119
 Vibration     9          0.599              1.964              3.938
 Vibration    10          0.601              1.957              3.699
 Vibration    11          0.604              1.947              3.413
 Vibration    12          0.605              1.946              3.382
 Vibration    13          0.608              1.935              3.144
 Vibration    14          0.616              1.910              2.756
 Vibration    15          0.619              1.900              2.641
 Vibration    16          0.625              1.880              2.437
 Vibration    17          0.628              1.871              2.360
 Vibration    18          0.641              1.831              2.076
 Vibration    19          0.647              1.811              1.962
 Vibration    20          0.654              1.788              1.844
 Vibration    21          0.664              1.759              1.713
 Vibration    22          0.670              1.739              1.636
 Vibration    23          0.672              1.733              1.614
 Vibration    24          0.676              1.723              1.576
 Vibration    25          0.687              1.690              1.468
 Vibration    26          0.707              1.633              1.303
 Vibration    27          0.720              1.594              1.209
 Vibration    28          0.740              1.539              1.089
 Vibration    29          0.748              1.519              1.051
 Vibration    30          0.769              1.463              0.951
 Vibration    31          0.781              1.430              0.897
 Vibration    32          0.796              1.393              0.841
 Vibration    33          0.863              1.233              0.639
 Vibration    34          0.900              1.151              0.555
 Vibration    35          0.934              1.079              0.489

                           ! Non-Optimized Parameters !
 Normal termination of Gaussian 16 at Thu May 18 03:44:53 2023.
