 Gaussian 16, Revision A.03,
 Gaussian 16:  ES64L-G16RevA.03 25-Dec-2016

 ----------------------------------------
 # wB97XD/aug-cc-pVDZ opt(MaxStep=1) freq
 ----------------------------------------

 ----
 blah
 ----
 Symbolic Z-matrix:
 Charge =  1 Multiplicity = 1

 SCF Done:  E(RwB97XD) =  -805.020375482     A.U. after   16 cycles
 SCF Done:  E(RwB97XD) =  -805.020401334     A.U. after   11 cycles
 SCF Done:  E(RwB97XD) =  -805.020525199     A.U. after   12 cycles
 SCF Done:  E(RwB97XD) =  -805.020603471     A.U. after   13 cycles
 SCF Done:  E(RwB97XD) =  -805.020683514     A.U. after   12 cycles
 SCF Done:  E(RwB97XD) =  -805.020732150     A.U. after   10 cycles
 SCF Done:  E(RwB97XD) =  -805.020775610     A.U. after   11 cycles
 SCF Done:  E(RwB97XD) =  -805.020808237     A.U. after   12 cycles
 SCF Done:  E(RwB97XD) =  -805.020876062     A.U. after   11 cycles
 SCF Done:  E(RwB97XD) =  -805.020891645     A.U. after   10 cycles
 SCF Done:  E(RwB97XD) =  -805.020984274     A.U. after   11 cycles
 SCF Done:  E(RwB97XD) =  -805.020987657     A.U. after   11 cycles
 SCF Done:  E(RwB97XD) =  -805.020988615     A.U. after   11 cycles
 SCF Done:  E(RwB97XD) =  -805.020988965     A.U. after    9 cycles
 SCF Done:  E(RwB97XD) =  -805.020989350     A.U. after   10 cycles
 SCF Done:  E(RwB97XD) =  -805.020989555     A.U. after   10 cycles
 SCF Done:  E(RwB97XD) =  -805.020989748     A.U. after    8 cycles
 SCF Done:  E(RwB97XD) =  -805.020989781     A.U. after    7 cycles
 SCF Done:  E(RwB97XD) =  -805.020989815     A.U. after    9 cycles
 Optimization completed.
    -- Stationary point found.
 Normal termination of Gaussian 16 at Tue Feb 28 22:55:31 2023.

 ----------------------------------------------------------------------
 #N Geom=AllCheck Guess=TCheck SCRF=Check GenChk RwB97XD/Aug-CC-pVDZ Fr
 eq
 ----------------------------------------------------------------------

 Structure from the checkpoint file:  "/gscratch/scrubbed/gds001/Gau-28453.chk"
 ----
 blah
 ----
 Charge =  1 Multiplicity = 1

                         Standard orientation:
 ---------------------------------------------------------------------
 Center     Atomic      Atomic             Coordinates (Angstroms)
 Number     Number       Type             X           Y           Z
 ---------------------------------------------------------------------
      1          7           0        1.545232   -1.335387    0.655254
      2          6           0        1.907826   -0.504767   -0.512021
      3          6           0        1.355879   -1.305687   -1.706694
      4          6           0        1.317944   -2.771662   -1.211585
      5          6           0        1.865405   -2.704050    0.217574
      6          6           0        1.411057    0.914559   -0.391488
      7          6           0        0.051527    1.184800   -0.248058
      8          7           0       -0.455814    2.411026   -0.111518
      9          6           0        0.384416    3.452844   -0.131659
     10          6           0        1.757069    3.296623   -0.282839
     11          6           0        2.274459    2.009066   -0.406305
     12          8           0       -3.032447    2.001781    0.366497
     13          8           0       -1.039342   -1.603399    1.358886
     14          1           0        1.414424   -3.436415    0.898322
     15          1           0        1.917472   -3.440673   -1.836787
     16          1           0        0.290240   -3.151764   -1.210368
     17          1           0        1.991810   -1.168432   -2.587276
     18          1           0        0.353139   -0.953378   -1.975423
     19          1           0        2.959304   -2.857290    0.230398
     20          1           0        3.011444   -0.471927   -0.583830
     21          1           0       -0.671236    0.368277   -0.241990
     22          1           0       -0.061447    4.441286   -0.022277
     23          1           0        2.407564    4.168923   -0.295995
     24          1           0        3.349164    1.857102   -0.513220
     25          6           0        2.244793   -0.946053    1.876659
     26          1           0       -2.092868    2.320114    0.185509
     27          1           0       -0.082439   -1.437217    1.067972
     28          1           0       -1.017412   -2.121708    2.166424
     29          1           0       -3.128750    0.608263    0.684199
     30          1           0       -3.463410    2.642316    0.938048
     31          8           0       -3.201417   -0.424150    0.840988
     32          1           0       -3.673123   -0.867217    0.085237
     33          1           0       -2.305538   -0.877614    1.042710
     34          1           0        1.971148   -1.628653    2.690365
     35          1           0        1.954867    0.071103    2.165497
     36          1           0        3.340458   -0.982439    1.746805
     37          8           0       -4.437623   -1.596103   -1.156879
     38          1           0       -4.730232   -1.110923   -1.934101
     39          1           0       -5.096139   -2.280282   -1.003821
 ---------------------------------------------------------------------

 SCF Done:  E(RwB97XD) =  -805.020989815     A.U. after    1 cycles

 The electronic state is 1-A.
 Alpha  occ. eigenvalues --  -19.45123 -19.43326 -19.40246 -19.40084 -14.58597
 Alpha  occ. eigenvalues --  -14.58061 -10.46007 -10.45695 -10.45093 -10.43808
 Alpha  occ. eigenvalues --  -10.43595 -10.43167 -10.42963 -10.42732 -10.40678
 Alpha  occ. eigenvalues --  -10.40138  -1.31299  -1.27513  -1.24599  -1.24031
 Alpha  occ. eigenvalues --   -1.18150  -1.16823  -1.03978  -1.00510  -0.99442
 Alpha  occ. eigenvalues --   -0.93670  -0.88992  -0.85652  -0.84578  -0.81129
 Alpha  occ. eigenvalues --   -0.80658  -0.79354  -0.79113  -0.78007  -0.76733
 Alpha  occ. eigenvalues --   -0.75065  -0.72780  -0.70870  -0.69912  -0.68648
 Alpha  occ. eigenvalues --   -0.66711  -0.65395  -0.64892  -0.64105  -0.62989
 Alpha  occ. eigenvalues --   -0.62056  -0.61542  -0.61276  -0.59991  -0.59564
 Alpha  occ. eigenvalues --   -0.59208  -0.58243  -0.56456  -0.56395  -0.55231
 Alpha  occ. eigenvalues --   -0.54477  -0.54327  -0.53969  -0.53443  -0.51661
 Alpha  occ. eigenvalues --   -0.48876  -0.48362  -0.45666  -0.44666
 Alpha virt. eigenvalues --   -0.08825  -0.07509  -0.07157  -0.05383  -0.04853
 Alpha virt. eigenvalues --   -0.04310  -0.03374  -0.03010  -0.02825  -0.02344
 Alpha virt. eigenvalues --   -0.01826  -0.01340  -0.00932  -0.00701  -0.00384

 Mulliken charges:
               1
     1  N   -1.164486
     2  C    1.105853
     3  C    1.119523
     4  C    0.830522
     5  C    1.355656
     6  C    0.453621
     7  C    1.025390
     8  N   -0.586812
     9  C    0.272526
    10  C    0.516841
    11  C    1.304468
    12  O   -0.467858
    13  O   -0.589821
    14  H   -0.579794
    15  H   -0.279490
    16  H   -0.326300
    17  H   -0.531165
    18  H   -0.319498
    19  H   -0.526594
    20  H   -0.859002
    21  H   -1.363270
    22  H   -0.614410
    23  H   -0.602795
    24  H   -0.904031
    25  C    1.026184
    26  H    0.405155
    27  H    0.595074
    28  H    0.164787
    29  H    0.527554
    30  H    0.143425
    31  O   -0.437115
    32  H    0.397343
    33  H    0.486292
    34  H   -0.228623
    35  H   -0.158059
    36  H   -0.199307
    37  O   -0.318599
    38  H    0.159022
    39  H    0.167791
 Sum of Mulliken charges =   1.00000

 Dipole moment (field-independent basis, Debye):
    X=             -4.3882    Y=             -0.8929    Z=              0.3351  Tot=              4.4906
 Quadrupole moment (field-independent basis, Debye-Ang):
   XX=            -38.2928   YY=            -63.4421   ZZ=            -86.3924
   XY=              8.3072   XZ=              5.3748   YZ=              1.4968

  Exact polarizability: 170.915  -1.838 189.987  -1.790   1.666 129.595
 Approx polarizability: 188.713   0.737 193.618  -3.847   1.251 146.227

                      1                      2                      3
                      A                      A                      A
 Frequencies --     12.8270                14.9909                43.9097
 Red. masses --      4.4380                 4.1329                 4.2261
 Frc consts  --      0.0004                 0.0005                 0.0048
 IR Inten    --      1.3318                 0.3518                 1.5434

                      4                      5                      6
                      A                      A                      A
 Frequencies --     54.7366                60.9361                71.6901
 Red. masses --      3.4293                 3.0941                 3.1868
 Frc consts  --      0.0061                 0.0068                 0.0096
 IR Inten    --      0.9675                 1.3246                 1.0976

                      7                      8                      9
                      A                      A                      A
 Frequencies --     76.9555                82.6029                93.8304
 Red. masses --      3.0965                 1.3489                 2.9072
 Frc consts  --      0.0108                 0.0054                 0.0151
 IR Inten    --      1.6380                17.0042                 4.1555

                     10                     11                     12
                      A                      A                      A
 Frequencies --    103.2590               122.4554               157.1958
 Red. masses --      4.2130                 3.6563                 3.4090
 Frc consts  --      0.0265                 0.0323                 0.0496
 IR Inten    --      5.9230                18.6722                24.9541

                     13                     14                     15
                      A                      A                      A
 Frequencies --    173.1102               187.9456               206.1898
 Red. masses --      1.9421                 1.6296                 3.0412
 Frc consts  --      0.0343                 0.0339                 0.0762
 IR Inten    --      4.8055                19.6675                41.1488

                     16                     17                     18
                      A                      A                      A
 Frequencies --    222.2269               251.9115               264.3510
 Red. masses --      4.1299                 1.1636                 2.5961
 Frc consts  --      0.1202                 0.0435                 0.1069
 IR Inten    --     17.6469                 0.5376                 0.7341

                     19                     20                     21
                      A                      A                      A
 Frequencies --    269.3417               294.8834               301.5201
 Red. masses --      1.2680                 2.1611                 1.5562
 Frc consts  --      0.0542                 0.1107                 0.0834
 IR Inten    --    152.7631                73.4054                92.9825

                     22                     23                     24
                      A                      A                      A
 Frequencies --    321.1093               360.2017               370.6662
 Red. masses --      3.9270                 1.6777                 2.5195
 Frc consts  --      0.2386                 0.1283                 0.2040
 IR Inten    --      9.6068                20.4571                54.4849

                     25                     26                     27
                      A                      A                      A
 Frequencies --    402.2509               404.2053               418.8934
 Red. masses --      2.8564                 2.9069                 3.1892
 Frc consts  --      0.2723                 0.2798                 0.3297
 IR Inten    --    145.6332                 1.6886                 3.3215

                     28                     29                     30
                      A                      A                      A
 Frequencies --    444.4682               544.9104               578.5511
 Red. masses --      3.4431                 3.8375                 2.8664
 Frc consts  --      0.4008                 0.6714                 0.5653
 IR Inten    --     51.6392                 2.9711                 1.5143

                     31                     32                     33
                      A                      A                      A
 Frequencies --    637.5741               639.3981               660.0384
 Red. masses --      2.5688                 1.2537                 4.6957
 Frc consts  --      0.6152                 0.3020                 1.2053
 IR Inten    --      1.9329                29.3493                27.8589

                     34                     35                     36
                      A                      A                      A
 Frequencies --    677.6425               687.7897               734.6344
 Red. masses --      4.4267                 1.1692                 1.8682
 Frc consts  --      1.1977                 0.3259                 0.5940
 IR Inten    --      1.4877                77.6731                25.9758

                     37                     38                     39
                      A                      A                      A
 Frequencies --    757.9055               781.5845               836.1569
 Red. masses --      1.0302                 1.4943                 1.6185
 Frc consts  --      0.3486                 0.5378                 0.6667
 IR Inten    --     18.8328                15.0001                29.2306

                     40                     41                     42
                      A                      A                      A
 Frequencies --    845.6364               902.6009               931.0664
 Red. masses --      2.3162                 1.0422                 1.6240
 Frc consts  --      0.9759                 0.5003                 0.8295
 IR Inten    --     14.6937                37.7120                 4.0655

                     43                     44                     45
                      A                      A                      A
 Frequencies --    933.3286               944.4626               953.0365
 Red. masses --      2.7627                 1.4483                 1.9468
 Frc consts  --      1.4179                 0.7612                 1.0418
 IR Inten    --     21.6734                18.3173                11.3363

                     46                     47                     48
                      A                      A                      A
 Frequencies --    966.6670               984.1486               994.9971
 Red. masses --      1.3662                 1.3480                 1.1609
 Frc consts  --      0.7522                 0.7692                 0.6771
 IR Inten    --     29.3568                 3.7613                26.0690

                     49                     50                     51
                      A                      A                      A
 Frequencies --   1007.5577              1024.8662              1054.7979
 Red. masses --      1.8687                 1.4031                 5.1275
 Frc consts  --      1.1177                 0.8683                 3.3612
 IR Inten    --     13.3701                 0.1914                 5.6959

                     52                     53                     54
                      A                      A                      A
 Frequencies --   1058.8092              1071.6707              1094.3392
 Red. masses --      2.3414                 1.8503                 2.0702
 Frc consts  --      1.5465                 1.2520                 1.4607
 IR Inten    --      6.6238                13.7375                11.5320

                     55                     56                     57
                      A                      A                      A
 Frequencies --   1118.3542              1145.5331              1146.8863
 Red. masses --      2.2737                 1.2575                 1.1208
 Frc consts  --      1.6755                 0.9723                 0.8686
 IR Inten    --      7.6388                 7.4355                46.1006

                     58                     59                     60
                      A                      A                      A
 Frequencies --   1154.9668              1192.2377              1217.9206
 Red. masses --      1.3035                 2.0384                 1.5234
 Frc consts  --      1.0245                 1.7071                 1.3314
 IR Inten    --     30.0276                17.6844                15.7557

                     61                     62                     63
                      A                      A                      A
 Frequencies --   1237.3666              1243.5226              1258.7348
 Red. masses --      1.4356                 1.8624                 1.6312
 Frc consts  --      1.2950                 1.6968                 1.5228
 IR Inten    --      5.1195                11.9439                 7.1269

                     64                     65                     66
                      A                      A                      A
 Frequencies --   1262.6296              1285.7130              1289.3276
 Red. masses --      1.6898                 1.2991                 1.2817
 Frc consts  --      1.5872                 1.2653                 1.2553
 IR Inten    --     11.0467                88.7987               129.4374

                     67                     68                     69
                      A                      A                      A
 Frequencies --   1300.5148              1319.4250              1331.6582
 Red. masses --      1.3529                 3.9338                 1.3651
 Frc consts  --      1.3481                 4.0349                 1.4262
 IR Inten    --      7.5230                 0.1265                 3.2861

                     70                     71                     72
                      A                      A                      A
 Frequencies --   1365.1180              1369.9886              1382.5050
 Red. masses --      1.3330                 1.4537                 1.4936
 Frc consts  --      1.4636                 1.6075                 1.6819
 IR Inten    --      3.7196                 3.0603                 5.8477

                     73                     74                     75
                      A                      A                      A
 Frequencies --   1411.8105              1449.4374              1481.8164
 Red. masses --      1.6329                 1.2004                 1.4856
 Frc consts  --      1.9176                 1.4858                 1.9220
 IR Inten    --      4.0731                 2.3260                20.9085

                     76                     77                     78
                      A                      A                      A
 Frequencies --   1484.0844              1488.0121              1491.9477
 Red. masses --      1.3221                 1.0968                 1.0715
 Frc consts  --      1.7156                 1.4309                 1.4053
 IR Inten    --     21.5302                 2.4015                 7.2565

                     79                     80                     81
                      A                      A                      A
 Frequencies --   1505.9038              1520.7083              1532.4683
 Red. masses --      1.0934                 1.1768                 2.1592
 Frc consts  --      1.4610                 1.6034                 2.9876
 IR Inten    --     12.6254                 9.8006                 9.7125

                     82                     83                     84
                      A                      A                      A
 Frequencies --   1634.6935              1639.6860              1666.6712
 Red. masses --      1.0858                 1.1218                 3.8447
 Frc consts  --      1.7096                 1.7769                 6.2924
 IR Inten    --     69.8855                20.2944                12.8957

                     85                     86                     87
                      A                      A                      A
 Frequencies --   1681.3221              1689.3144              1706.1829
 Red. masses --      1.2545                 2.7926                 1.1334
 Frc consts  --      2.0893                 4.6955                 1.9440
 IR Inten    --      7.1614                21.8134                12.6022

                     88                     89                     90
                      A                      A                      A
 Frequencies --   1744.1727              2292.7409              2676.6389
 Red. masses --      1.0696                 1.1331                 1.0774
 Frc consts  --      1.9171                 3.5093                 4.5479
 IR Inten    --      7.3995              2334.0394              3485.4836

                     91                     92                     93
                      A                      A                      A
 Frequencies --   2888.5243              2971.7098              2985.6583
 Red. masses --      1.0747                 1.0736                 1.0833
 Frc consts  --      5.2829                 5.5860                 5.6894
 IR Inten    --    585.6104              2466.4780                 0.9568

                     94                     95                     96
                      A                      A                      A
 Frequencies --   3007.0768              3013.6989              3092.0083
 Red. masses --      1.0615                 1.0564                 1.0634
 Frc consts  --      5.6556                 5.6532                 5.9900
 IR Inten    --     11.9661                43.2110                14.4582

                     97                     98                     99
                      A                      A                      A
 Frequencies --   3102.3679              3110.7220              3117.7878
 Red. masses --      1.0670                 1.0892                 1.0914
 Frc consts  --      6.0507                 6.2100                 6.2506
 IR Inten    --     21.1974                17.2929                34.3776

                    100                    101                    102
                      A                      A                      A
 Frequencies --   3144.8138              3150.0065              3162.8779
 Red. masses --      1.1046                 1.1047                 1.1054
 Frc consts  --      6.4367                 6.4581                 6.5154
 IR Inten    --      0.2670                15.2949                22.1416

                    103                    104                    105
                      A                      A                      A
 Frequencies --   3203.0079              3204.4934              3215.2068
 Red. masses --      1.0913                 1.0900                 1.0923
 Frc consts  --      6.5963                 6.5946                 6.6532
 IR Inten    --      1.3275                12.9436                 5.0702

                    106                    107                    108
                      A                      A                      A
 Frequencies --   3238.0105              3273.1259              3865.6824
 Red. masses --      1.0989                 1.0652                 1.0451
 Frc consts  --      6.7883                 6.7236                 9.2013
 IR Inten    --      1.8972              1238.6169                43.1292

                    109                    110                    111
                      A                      A                      A
 Frequencies --   3929.8250              3936.4272              3967.6173
 Red. masses --      1.0662                 1.0661                 1.0832
 Frc consts  --      9.7018                 9.7332                10.0464
 IR Inten    --    126.6516                97.0590               134.1915

 - Thermochemistry -
 -------------------
 Temperature   298.150 Kelvin.  Pressure   1.00000 Atm.
 Atom     1 has atomic number  7 and mass  14.00307

 Molecular mass:   235.16578 amu.
 Principal axes and moments of inertia in atomic units:
                           1         2         3
     Eigenvalues --  4122.712294904.302997454.21170
           X            0.99946  -0.03185   0.00745
           Y            0.03181   0.99948   0.00524
           Z           -0.00761  -0.00500   0.99996
 This molecule is an asymmetric top.
 Rotational symmetry number  1.
 Warning -- assumption of classical behavior for rotation
           may cause significant error
 Rotational temperatures (Kelvin)      0.02101     0.01766     0.01162
 Rotational constants (GHZ):           0.43776     0.36799     0.24211
 Zero-point vibrational energy     893571.6 (Joules/Mol)
                                  213.56873 (Kcal/Mol)
 Warning -- explicit consideration of  30 degrees of freedom as
           vibrations may cause significant error
 Vibrational temperatures:     18.46    21.57    63.18    78.75    87.67
          (Kelvin)            103.15   110.72   118.85   135.00   148.57
                              176.19   226.17   249.07   270.41   296.66
                              319.73   362.44   380.34   387.52   424.27
                              433.82   462.00   518.25   533.31   578.75
                              581.56   602.69   639.49   784.00   832.41
                              917.33   919.95   949.65   974.98   989.58
                             1056.97  1090.46  1124.53  1203.04  1216.68
                             1298.64  1339.60  1342.85  1358.87  1371.21
                             1390.82  1415.97  1431.58  1449.65  1474.55
                             1517.62  1523.39  1541.90  1574.51  1609.06
                             1648.17  1650.11  1661.74  1715.36  1752.32
                             1780.29  1789.15  1811.04  1816.64  1849.85
                             1855.05  1871.15  1898.36  1915.96  1964.10
                             1971.11  1989.12  2031.28  2085.42  2132.00
                             2135.27  2140.92  2146.58  2166.66  2187.96
                             2204.88  2351.96  2359.14  2397.97  2419.05
                             2430.55  2454.82  2509.48  3298.74  3851.09
                             4155.94  4275.63  4295.70  4326.51  4336.04
                             4448.71  4463.62  4475.64  4485.80  4524.69
                             4532.16  4550.68  4608.41  4610.55  4625.97
                             4658.77  4709.30  5561.85  5654.14  5663.64
                             5708.52

 Zero-point correction=                           0.340343 (Hartree/Particle)
 Thermal correction to Energy=                    0.361676
 Thermal correction to Enthalpy=                  0.362620
 Thermal correction to Gibbs Free Energy=         0.287229
 Sum of electronic and zero-point Energies=           -804.680646
 Sum of electronic and thermal Energies=              -804.659314
 Sum of electronic and thermal Enthalpies=            -804.658370
 Sum of electronic and thermal Free Energies=         -804.733761

                     E (Thermal)             CV                S
                      KCal/Mol        Cal/Mol-Kelvin    Cal/Mol-Kelvin
 Total                  226.955             75.575            158.674
 Electronic               0.000              0.000              0.000
 Translational            0.889              2.981             42.267
 Rotational               0.889              2.981             33.377
 Vibrational            225.178             69.613             83.030
 Vibration     1          0.593              1.987              7.516
 Vibration     2          0.593              1.986              7.207
 Vibration     3          0.595              1.980              5.074
 Vibration     4          0.596              1.976              4.638
 Vibration     5          0.597              1.973              4.427
 Vibration     6          0.598              1.968              4.106
 Vibration     7          0.599              1.965              3.967
 Vibration     8          0.600              1.961              3.828
 Vibration     9          0.603              1.954              3.579
 Vibration    10          0.605              1.947              3.392
 Vibration    11          0.610              1.930              3.061
 Vibration    12          0.621              1.895              2.583
 Vibration    13          0.627              1.876              2.401
 Vibration    14          0.633              1.856              2.248
 Vibration    15          0.641              1.831              2.077
 Vibration    16          0.648              1.807              1.941
 Vibration    17          0.664              1.760              1.717
 Vibration    18          0.671              1.738              1.633
 Vibration    19          0.674              1.730              1.600
 Vibration    20          0.689              1.683              1.446
 Vibration    21          0.694              1.671              1.408
 Vibration    22          0.707              1.633              1.304
 Vibration    23          0.735              1.554              1.121
 Vibration    24          0.743              1.532              1.077
 Vibration    25          0.768              1.465              0.954
 Vibration    26          0.769              1.461              0.947
 Vibration    27          0.782              1.429              0.896
 Vibration    28          0.804              1.373              0.813
 Vibration    29          0.900              1.151              0.555
 Vibration    30          0.935              1.078              0.488

                           ! Non-Optimized Parameters !
 Normal termination of Gaussian 16 at Wed Mar  1 00:03:17 2023.
