 Gaussian 16, Revision A.03,
 Gaussian 16:  ES64L-G16RevA.03 25-Dec-2016

 ----------------------------------------------------------------
 # wB97XD/aug-cc-pVDZ opt=(TS,CalcAll,MaxStep=5,NoEigenTest) freq
 ----------------------------------------------------------------

 ----
 blah
 ----
 Symbolic Z-matrix:
 Charge =  1 Multiplicity = 1

 SCF Done:  E(RwB97XD) =  -805.018762274     A.U. after   15 cycles
 SCF Done:  E(RwB97XD) =  -805.018773278     A.U. after   13 cycles
 SCF Done:  E(RwB97XD) =  -805.018778823     A.U. after   11 cycles
 SCF Done:  E(RwB97XD) =  -805.018780477     A.U. after   11 cycles
 SCF Done:  E(RwB97XD) =  -805.018780024     A.U. after   11 cycles
 SCF Done:  E(RwB97XD) =  -805.018780312     A.U. after   10 cycles
 SCF Done:  E(RwB97XD) =  -805.018780159     A.U. after    9 cycles
 SCF Done:  E(RwB97XD) =  -805.018780244     A.U. after    8 cycles
 Optimization completed on the basis of negligible forces.
    -- Stationary point found.
 ******    1 imaginary frequencies (negative Signs) ******
    1 imaginary frequencies ignored.
 Normal termination of Gaussian 16 at Sun Feb 26 01:28:36 2023.

 ----------------------------------------------------------------------
 #N Geom=AllCheck Guess=TCheck SCRF=Check GenChk RwB97XD/Aug-CC-pVDZ Fr
 eq
 ----------------------------------------------------------------------

 Structure from the checkpoint file:  "/gscratch/scrubbed/gds001/Gau-1330.chk"
 ----
 blah
 ----
 Charge =  1 Multiplicity = 1

                         Standard orientation:
 ---------------------------------------------------------------------
 Center     Atomic      Atomic             Coordinates (Angstroms)
 Number     Number       Type             X           Y           Z
 ---------------------------------------------------------------------
      1          7           0        1.188535   -1.598039    0.635155
      2          6           0        1.582525   -0.877495   -0.606773
      3          6           0        0.708560   -1.530900   -1.693501
      4          6           0        0.360583   -2.933307   -1.138320
      5          6           0        1.091784   -3.009330    0.204614
      6          6           0        1.474438    0.620559   -0.465286
      7          6           0        0.235748    1.239003   -0.303610
      8          7           0        0.071835    2.551798   -0.136980
      9          6           0        1.159701    3.330127   -0.143964
     10          6           0        2.442642    2.819925   -0.313428
     11          6           0        2.599200    1.445180   -0.469427
     12          8           0       -2.597373    2.600254    0.340320
     13          8           0       -1.093964   -1.156056    1.584627
     14          1           0        0.562743   -3.594140    0.965454
     15          1           0        0.676095   -3.739794   -1.807112
     16          1           0       -0.720325   -3.030516   -0.988150
     17          1           0        1.254856   -1.572578   -2.640982
     18          1           0       -0.197885   -0.942340   -1.872164
     19          1           0        2.105493   -3.424989    0.088585
     20          1           0        2.639796   -1.126188   -0.801405
     21          1           0       -0.679708    0.646986   -0.308558
     22          1           0        0.994493    4.399165   -0.010056
     23          1           0        3.300907    3.488966   -0.318500
     24          1           0        3.594282    1.016531   -0.595730
     25          6           0        2.121856   -1.392858    1.746320
     26          1           0       -1.641598    2.810555    0.177515
     27          1           0       -0.072729   -1.284804    1.126656
     28          1           0       -1.094539   -1.353398    2.524104
     29          1           0       -2.860892    1.120365    0.756502
     30          1           0       -2.990268    3.345692    0.799600
     31          8           0       -3.001311    0.136561    0.927353
     32          1           0       -3.513002   -0.258213    0.182266
     33          1           0       -2.074292   -0.461084    1.223679
     34          1           0        1.799881   -1.992070    2.605859
     35          1           0        2.125477   -0.335587    2.033921
     36          1           0        3.142245   -1.697225    1.467562
     37          8           0       -4.328165   -0.952712   -1.125126
     38          1           0       -4.632536   -0.398816   -1.850319
     39          1           0       -5.036810   -1.582629   -0.963084
 ---------------------------------------------------------------------

 SCF Done:  E(RwB97XD) =  -805.018780244     A.U. after    2 cycles

 The electronic state is 1-A.
 Alpha  occ. eigenvalues --  -19.42320 -19.42272 -19.39586 -19.38819 -14.60937
 Alpha  occ. eigenvalues --  -14.58286 -10.46476 -10.46027 -10.45680 -10.44646
 Alpha  occ. eigenvalues --  -10.44590 -10.44098 -10.43967 -10.42824 -10.41688
 Alpha  occ. eigenvalues --  -10.41238  -1.28494  -1.26397  -1.23546  -1.22768
 Alpha  occ. eigenvalues --   -1.19041  -1.17706  -1.04460  -1.01639  -0.99980
 Alpha  occ. eigenvalues --   -0.94609  -0.90584  -0.86096  -0.84838  -0.81658
 Alpha  occ. eigenvalues --   -0.80396  -0.78701  -0.78322  -0.76888  -0.76533
 Alpha  occ. eigenvalues --   -0.74274  -0.72549  -0.71664  -0.70374  -0.69344
 Alpha  occ. eigenvalues --   -0.66760  -0.66317  -0.65243  -0.64430  -0.62662
 Alpha  occ. eigenvalues --   -0.61976  -0.61774  -0.61073  -0.60176  -0.59619
 Alpha  occ. eigenvalues --   -0.58791  -0.57839  -0.57004  -0.56411  -0.55416
 Alpha  occ. eigenvalues --   -0.55163  -0.54646  -0.53890  -0.52787  -0.52691
 Alpha  occ. eigenvalues --   -0.49065  -0.48133  -0.47403  -0.45857
 Alpha virt. eigenvalues --   -0.08878  -0.07741  -0.06767  -0.05519  -0.04690
 Alpha virt. eigenvalues --   -0.04572  -0.03476  -0.03013  -0.02839  -0.02523
 Alpha virt. eigenvalues --   -0.01937  -0.01382  -0.01090  -0.00786  -0.00439

 Mulliken charges:
               1
     1  N   -1.681754
     2  C    0.965059
     3  C    1.092767
     4  C    0.850174
     5  C    1.364565
     6  C    0.677436
     7  C    1.210422
     8  N   -0.532628
     9  C    0.184148
    10  C    0.555288
    11  C    1.242813
    12  O   -0.447966
    13  O   -0.662434
    14  H   -0.547180
    15  H   -0.282926
    16  H   -0.316760
    17  H   -0.517685
    18  H   -0.334318
    19  H   -0.485937
    20  H   -0.849000
    21  H   -1.281784
    22  H   -0.590014
    23  H   -0.607099
    24  H   -0.899465
    25  C    1.052597
    26  H    0.350664
    27  H    0.804441
    28  H    0.142709
    29  H    0.429614
    30  H    0.179092
    31  O   -0.551145
    32  H    0.335698
    33  H    0.628463
    34  H   -0.207938
    35  H   -0.116777
    36  H   -0.159918
    37  O   -0.328262
    38  H    0.163989
    39  H    0.171048
 Sum of Mulliken charges =   1.00000

 Dipole moment (field-independent basis, Debye):
    X=             -2.1364    Y=             -1.1876    Z=              0.4557  Tot=              2.4864
 Quadrupole moment (field-independent basis, Debye-Ang):
   XX=            -43.8814   YY=            -64.7555   ZZ=            -85.3092
   XY=              2.7062   XZ=              6.2160   YZ=              1.2789

  Exact polarizability: 170.848   2.732 187.757  -0.738   2.525 128.870
 Approx polarizability: 188.922   0.895 191.736  -3.196   3.242 146.462

 ******    1 imaginary frequencies (negative Signs) ******

                      1                      2                      3
                      A                      A                      A
 Frequencies --   -822.9909                15.1185                17.4498
 Red. masses --      1.1281                 4.4858                 4.0003
 Frc consts  --      0.4502                 0.0006                 0.0007
 IR Inten    --   4758.1973                 1.2363                 0.4730

                      4                      5                      6
                      A                      A                      A
 Frequencies --     41.3511                56.4065                58.1605
 Red. masses --      4.6069                 2.8847                 3.5697
 Frc consts  --      0.0046                 0.0054                 0.0071
 IR Inten    --      0.8014                 1.4830                 4.1206

                      7                      8                      9
                      A                      A                      A
 Frequencies --     68.7535                91.7644                98.7473
 Red. masses --      4.0724                 2.9733                 4.1677
 Frc consts  --      0.0113                 0.0148                 0.0239
 IR Inten    --      2.3947                 1.6567                 3.9016

                     10                     11                     12
                      A                      A                      A
 Frequencies --    101.6023               113.6893               117.7047
 Red. masses --      4.0325                 1.3638                 2.0399
 Frc consts  --      0.0245                 0.0104                 0.0167
 IR Inten    --      6.7136                13.5336                31.4112

                     13                     14                     15
                      A                      A                      A
 Frequencies --    180.7397               190.7125               205.5928
 Red. masses --      2.0882                 1.7612                 3.4574
 Frc consts  --      0.0402                 0.0377                 0.0861
 IR Inten    --      2.6133                26.5222                54.7585

                     16                     17                     18
                      A                      A                      A
 Frequencies --    216.5052               237.2722               252.4611
 Red. masses --      2.7274                 3.8191                 1.2151
 Frc consts  --      0.0753                 0.1267                 0.0456
 IR Inten    --      3.1210                27.7719                 0.9879

                     19                     20                     21
                      A                      A                      A
 Frequencies --    262.6287               265.5032               296.7774
 Red. masses --      1.2061                 2.5256                 1.6617
 Frc consts  --      0.0490                 0.1049                 0.0862
 IR Inten    --     98.1511                 4.2385                45.4220

                     22                     23                     24
                      A                      A                      A
 Frequencies --    312.7774               330.3443               345.1648
 Red. masses --      2.0722                 3.3956                 1.5017
 Frc consts  --      0.1194                 0.2183                 0.1054
 IR Inten    --    205.2610                15.7549                87.4995

                     25                     26                     27
                      A                      A                      A
 Frequencies --    368.0069               399.4941               419.0135
 Red. masses --      2.4980                 2.9042                 3.1602
 Frc consts  --      0.1993                 0.2731                 0.3269
 IR Inten    --     42.9672                 2.3938                 0.4777

                     28                     29                     30
                      A                      A                      A
 Frequencies --    528.2988               572.4603               578.4369
 Red. masses --      3.6311                 2.9638                 1.7128
 Frc consts  --      0.5971                 0.5723                 0.3376
 IR Inten    --     33.4144                31.5306                77.6784

                     31                     32                     33
                      A                      A                      A
 Frequencies --    593.4116               606.7261               638.6962
 Red. masses --      1.6994                 3.4799                 3.1041
 Frc consts  --      0.3526                 0.7547                 0.7461
 IR Inten    --     36.6133               241.2869                 0.4481

                     34                     35                     36
                      A                      A                      A
 Frequencies --    659.0761               679.1599               737.8195
 Red. masses --      5.2534                 5.1216                 1.9061
 Frc consts  --      1.3445                 1.3919                 0.6113
 IR Inten    --     68.8362                 2.3127                25.7622

                     37                     38                     39
                      A                      A                      A
 Frequencies --    776.7884               792.5085               811.3775
 Red. masses --      1.1916                 1.1929                 1.1227
 Frc consts  --      0.4236                 0.4414                 0.4355
 IR Inten    --    196.9655                55.9201               248.3577

                     40                     41                     42
                      A                      A                      A
 Frequencies --    820.8295               837.5120               845.7987
 Red. masses --      1.2081                 1.3177                 2.2225
 Frc consts  --      0.4796                 0.5446                 0.9368
 IR Inten    --     65.9487                91.7189                23.6355

                     43                     44                     45
                      A                      A                      A
 Frequencies --    852.6844               931.0726               943.4778
 Red. masses --      1.2144                 2.2170                 2.4507
 Frc consts  --      0.5202                 1.1323                 1.2853
 IR Inten    --     33.7093                16.7449                16.0244

                     46                     47                     48
                      A                      A                      A
 Frequencies --    960.2657               969.1939               988.5158
 Red. masses --      1.7984                 1.5954                 1.5020
 Frc consts  --      0.9771                 0.8830                 0.8647
 IR Inten    --     43.8232                51.5511                 4.1216

                     49                     50                     51
                      A                      A                      A
 Frequencies --   1005.3877              1025.9044              1053.6383
 Red. masses --      1.9074                 1.4138                 4.1738
 Frc consts  --      1.1360                 0.8767                 2.7300
 IR Inten    --      4.7250                 0.2746                71.3063

                     52                     53                     54
                      A                      A                      A
 Frequencies --   1061.4160              1067.2534              1076.2046
 Red. masses --      2.3466                 1.9138                 1.2314
 Frc consts  --      1.5576                 1.2844                 0.8403
 IR Inten    --      1.9174                26.5635               228.6482

                     55                     56                     57
                      A                      A                      A
 Frequencies --   1095.6368              1110.0284              1141.7805
 Red. masses --      1.7818                 2.2493                 1.2816
 Frc consts  --      1.2602                 1.6329                 0.9844
 IR Inten    --     14.6169                12.2398                 4.7452

                     58                     59                     60
                      A                      A                      A
 Frequencies --   1154.3955              1182.7372              1217.0706
 Red. masses --      1.4075                 2.4795                 1.6789
 Frc consts  --      1.1051                 2.0436                 1.4652
 IR Inten    --      9.1980                10.8259                 4.2136

                     61                     62                     63
                      A                      A                      A
 Frequencies --   1224.3329              1240.9822              1258.3201
 Red. masses --      1.5406                 1.5774                 1.4327
 Frc consts  --      1.3606                 1.4313                 1.3366
 IR Inten    --      6.1196                10.5150                30.1026

                     64                     65                     66
                      A                      A                      A
 Frequencies --   1264.7328              1281.9395              1300.5022
 Red. masses --      1.6775                 1.3844                 1.3634
 Frc consts  --      1.5809                 1.3405                 1.3586
 IR Inten    --      2.2360                13.3129                13.2975

                     67                     68                     69
                      A                      A                      A
 Frequencies --   1316.6943              1329.5196              1347.7251
 Red. masses --      3.6773                 1.3142                 1.1968
 Frc consts  --      3.7562                 1.3687                 1.2808
 IR Inten    --      1.4243                86.1490               142.5568

                     70                     71                     72
                      A                      A                      A
 Frequencies --   1366.7099              1372.7763              1373.7980
 Red. masses --      1.3163                 1.3210                 1.3386
 Frc consts  --      1.4486                 1.4667                 1.4885
 IR Inten    --     24.6078                 7.4917                43.0056

                     73                     74                     75
                      A                      A                      A
 Frequencies --   1394.7443              1414.2348              1455.4610
 Red. masses --      1.3399                 1.5394                 1.1806
 Frc consts  --      1.5358                 1.8140                 1.4735
 IR Inten    --     36.1605                 9.3207                 9.1601

                     76                     77                     78
                      A                      A                      A
 Frequencies --   1482.3321              1486.7432              1490.5134
 Red. masses --      2.1449                 1.0660                 1.0713
 Frc consts  --      2.7768                 1.3883                 1.4023
 IR Inten    --     34.7151                14.9619                 5.8094

                     79                     80                     81
                      A                      A                      A
 Frequencies --   1493.3902              1505.5172              1516.8170
 Red. masses --      1.0798                 1.0921                 1.1288
 Frc consts  --      1.4189                 1.4584                 1.5301
 IR Inten    --      8.1370                48.7369                59.3489

                     82                     83                     84
                      A                      A                      A
 Frequencies --   1532.5207              1573.1668              1609.8072
 Red. masses --      2.2302                 1.1133                 1.0924
 Frc consts  --      3.0861                 1.6233                 1.6680
 IR Inten    --     15.8357               318.5585               354.3089

                     85                     86                     87
                      A                      A                      A
 Frequencies --   1638.1444              1660.3954              1677.2821
 Red. masses --      1.0850                 2.8217                 1.4678
 Frc consts  --      1.7154                 4.5833                 2.4330
 IR Inten    --    110.5302                18.8519                 8.7587

                     88                     89                     90
                      A                      A                      A
 Frequencies --   1689.6446              1747.9880              1793.5343
 Red. masses --      4.2704                 1.0685                 1.0709
 Frc consts  --      7.1831                 1.9235                 2.0297
 IR Inten    --     21.9326                61.4020               472.4494

                     91                     92                     93
                      A                      A                      A
 Frequencies --   2990.2378              3021.9653              3038.2437
 Red. masses --      1.0763                 1.0849                 1.0416
 Frc consts  --      5.6699                 5.8372                 5.6651
 IR Inten    --   1525.8348                12.2832                10.0104

                     94                     95                     96
                      A                      A                      A
 Frequencies --   3044.6071              3098.3906              3108.0626
 Red. masses --      1.0663                 1.0632                 1.0645
 Frc consts  --      5.8234                 6.0135                 6.0589
 IR Inten    --     31.5326                14.5049                16.9428

                     97                     98                     99
                      A                      A                      A
 Frequencies --   3130.5489              3135.4841              3150.3972
 Red. masses --      1.0978                 1.0979                 1.1053
 Frc consts  --      6.3392                 6.3595                 6.4634
 IR Inten    --     10.2629                15.4941                 0.4781

                    100                    101                    102
                      A                      A                      A
 Frequencies --   3162.0298              3168.1032              3202.0925
 Red. masses --      1.1053                 1.1055                 1.0911
 Frc consts  --      6.5111                 6.5372                 6.5912
 IR Inten    --     10.0158                20.5146                 4.3683

                    103                    104                    105
                      A                      A                      A
 Frequencies --   3208.5324              3211.4413              3237.0314
 Red. masses --      1.0895                 1.0924                 1.0985
 Frc consts  --      6.6086                 6.6382                 6.7819
 IR Inten    --     15.0869                 6.8529                 5.8664

                    106                    107                    108
                      A                      A                      A
 Frequencies --   3293.1373              3412.7145              3865.4881
 Red. masses --      1.0671                 1.0677                 1.0453
 Frc consts  --      6.8183                 7.3264                 9.2023
 IR Inten    --   1465.3957              1038.6462                37.4549

                    109                    110                    111
                      A                      A                      A
 Frequencies --   3929.5629              3943.5793              3966.8482
 Red. masses --      1.0662                 1.0671                 1.0827
 Frc consts  --      9.7000                 9.7774                10.0383
 IR Inten    --     85.6403               136.0893               120.9992

 - Thermochemistry -
 -------------------
 Temperature   298.150 Kelvin.  Pressure   1.00000 Atm.
 Atom     1 has atomic number  7 and mass  14.00307

 Molecular mass:   235.16578 amu.
 Principal axes and moments of inertia in atomic units:
                           1         2         3
     Eigenvalues --  4161.659004506.746297053.36074
           X            0.99531  -0.09623   0.01015
           Y            0.09619   0.99535   0.00433
           Z           -0.01052  -0.00334   0.99994
 This molecule is an asymmetric top.
 Rotational symmetry number  1.
 Warning -- assumption of classical behavior for rotation
           may cause significant error
 Rotational temperatures (Kelvin)      0.02081     0.01922     0.01228
 Rotational constants (GHZ):           0.43366     0.40045     0.25587
    1 imaginary frequencies ignored.
 Zero-point vibrational energy     882473.6 (Joules/Mol)
                                  210.91626 (Kcal/Mol)
 Warning -- explicit consideration of  31 degrees of freedom as
           vibrations may cause significant error
 Vibrational temperatures:     21.75    25.11    59.49    81.16    83.68
          (Kelvin)             98.92   132.03   142.08   146.18   163.57
                              169.35   260.04   274.39   295.80   311.50
                              341.38   363.24   377.86   382.00   427.00
                              450.02   475.29   496.62   529.48   574.78
                              602.87   760.10   823.64   832.24   853.79
                              872.94   918.94   948.26   977.16  1061.56
                             1117.63  1140.24  1167.39  1180.99  1204.99
                             1216.92  1226.82  1339.61  1357.45  1381.61
                             1394.45  1422.25  1446.53  1476.05  1515.95
                             1527.14  1535.54  1548.42  1576.38  1597.08
                             1642.77  1660.92  1701.70  1751.09  1761.54
                             1785.50  1810.44  1819.67  1844.43  1871.13
                             1894.43  1912.88  1939.08  1966.39  1975.12
                             1976.59  2006.73  2034.77  2094.08  2132.75
                             2139.09  2144.52  2148.66  2166.10  2182.36
                             2204.96  2263.44  2316.15  2356.92  2388.94
                             2413.23  2431.02  2514.96  2580.50  4302.29
                             4347.93  4371.36  4380.51  4457.89  4471.81
                             4504.16  4511.26  4532.72  4549.46  4558.19
                             4607.10  4616.36  4620.55  4657.37  4738.09
                             4910.13  5561.58  5653.76  5673.93  5707.41

 Zero-point correction=                           0.336116 (Hartree/Particle)
 Thermal correction to Energy=                    0.356987
 Thermal correction to Enthalpy=                  0.357931
 Thermal correction to Gibbs Free Energy=         0.284023
 Sum of electronic and zero-point Energies=           -804.682664
 Sum of electronic and thermal Energies=              -804.661793
 Sum of electronic and thermal Enthalpies=            -804.660849
 Sum of electronic and thermal Free Energies=         -804.734757

                     E (Thermal)             CV                S
                      KCal/Mol        Cal/Mol-Kelvin    Cal/Mol-Kelvin
 Total                  224.013             74.616            155.553
 Electronic               0.000              0.000              0.000
 Translational            0.889              2.981             42.267
 Rotational               0.889              2.981             33.247
 Vibrational            222.235             68.654             80.039
 Vibration     1          0.593              1.986              7.190
 Vibration     2          0.593              1.986              6.905
 Vibration     3          0.594              1.981              5.193
 Vibration     4          0.596              1.975              4.579
 Vibration     5          0.596              1.974              4.519
 Vibration     6          0.598              1.969              4.189
 Vibration     7          0.602              1.955              3.622
 Vibration     8          0.604              1.950              3.479
 Vibration     9          0.604              1.948              3.423
 Vibration    10          0.607              1.938              3.205
 Vibration    11          0.608              1.935              3.138
 Vibration    12          0.630              1.866              2.321
 Vibration    13          0.634              1.853              2.221
 Vibration    14          0.640              1.832              2.082
 Vibration    15          0.645              1.816              1.988
 Vibration    16          0.656              1.784              1.823
 Vibration    17          0.664              1.759              1.713
 Vibration    18          0.670              1.741              1.644
 Vibration    19          0.671              1.736              1.625
 Vibration    20          0.690              1.680              1.435
 Vibration    21          0.701              1.649              1.348
 Vibration    22          0.713              1.615              1.258
 Vibration    23          0.724              1.585              1.188
 Vibration    24          0.741              1.538              1.088
 Vibration    25          0.766              1.471              0.965
 Vibration    26          0.782              1.429              0.895
 Vibration    27          0.883              1.187              0.591
 Vibration    28          0.929              1.091              0.500
 Vibration    29          0.935              1.078              0.488
 Vibration    30          0.951              1.046              0.461
 Vibration    31          0.965              1.018              0.438

 Optimization completed on the basis of negligible forces.
    -- Stationary point found.
 Normal termination of Gaussian 16 at Sun Feb 26 02:38:02 2023.
