 Gaussian 16, Revision A.03,
 Gaussian 16:  ES64L-G16RevA.03 25-Dec-2016

 ----------------------------------------------------------------
 # wB97XD/aug-cc-pVDZ opt=(TS,CalcAll,MaxStep=5,NoEigenTest) freq
 ----------------------------------------------------------------

 ----
 blah
 ----
 Symbolic Z-matrix:
 Charge =  1 Multiplicity = 1

 SCF Done:  E(RwB97XD) =  -805.019409653     A.U. after   15 cycles
 SCF Done:  E(RwB97XD) =  -805.019519041     A.U. after   12 cycles
 SCF Done:  E(RwB97XD) =  -805.019585058     A.U. after   12 cycles
 SCF Done:  E(RwB97XD) =  -805.019619705     A.U. after   12 cycles
 SCF Done:  E(RwB97XD) =  -805.019643145     A.U. after   12 cycles
 SCF Done:  E(RwB97XD) =  -805.019651438     A.U. after   12 cycles
 SCF Done:  E(RwB97XD) =  -805.019651768     A.U. after   10 cycles
 Optimization completed on the basis of negligible forces.
    -- Stationary point found.
 ******    1 imaginary frequencies (negative Signs) ******
    1 imaginary frequencies ignored.
 Normal termination of Gaussian 16 at Fri Mar  3 04:51:26 2023.

 ----------------------------------------------------------------------
 #N Geom=AllCheck Guess=TCheck SCRF=Check GenChk RwB97XD/Aug-CC-pVDZ Fr
 eq
 ----------------------------------------------------------------------

 Structure from the checkpoint file:  "/gscratch/scrubbed/gds001/Gau-157762.chk"
 ----
 blah
 ----
 Charge =  1 Multiplicity = 1

                         Standard orientation:
 ---------------------------------------------------------------------
 Center     Atomic      Atomic             Coordinates (Angstroms)
 Number     Number       Type             X           Y           Z
 ---------------------------------------------------------------------
      1          7           0        1.634152   -1.303457    0.671925
      2          6           0        2.025830   -0.420383   -0.441175
      3          6           0        1.605864   -1.217088   -1.691005
      4          6           0        1.659589   -2.697379   -1.242704
      5          6           0        2.081020   -2.633404    0.229740
      6          6           0        1.427386    0.960403   -0.334084
      7          6           0        0.053258    1.129809   -0.185724
      8          7           0       -0.534371    2.324031   -0.077104
      9          6           0        0.219544    3.429600   -0.131381
     10          6           0        1.597176    3.367247   -0.289127
     11          6           0        2.205354    2.116633   -0.382617
     12          8           0       -3.002369    1.947722    0.343422
     13          8           0       -1.044096   -1.776410    1.090376
     14          1           0        1.628094   -3.414036    0.853445
     15          1           0        2.367669   -3.286940   -1.833498
     16          1           0        0.674052   -3.165159   -1.342291
     17          1           0        2.271411   -0.998267   -2.532493
     18          1           0        0.591164   -0.935303   -1.996711
     19          1           0        3.178466   -2.716467    0.330361
     20          1           0        3.127742   -0.312286   -0.437477
     21          1           0       -0.611653    0.267852   -0.148522
     22          1           0       -0.302076    4.382005   -0.044343
     23          1           0        2.182903    4.283291   -0.329341
     24          1           0        3.287750    2.041957   -0.492589
     25          6           0        2.203231   -0.905347    1.955125
     26          1           0       -1.981681    2.220825    0.170527
     27          1           0       -0.078965   -1.565678    0.937476
     28          1           0       -1.082229   -2.525703    1.688399
     29          1           0       -3.126882    0.780440    0.535302
     30          1           0       -3.373536    2.477203    1.055948
     31          8           0       -3.245846   -0.406123    0.712212
     32          1           0       -3.819285   -0.874123    0.062721
     33          1           0       -2.410133   -0.925056    0.860800
     34          1           0        1.907540   -1.625972    2.726890
     35          1           0        1.823247    0.081909    2.243955
     36          1           0        3.306524   -0.866477    1.918234
     37          8           0       -4.843394   -1.713741   -0.987624
     38          1           0       -5.011981   -1.493565   -1.907717
     39          1           0       -5.630495   -2.166596   -0.672208
 ---------------------------------------------------------------------

 SCF Done:  E(RwB97XD) =  -805.019651768     A.U. after    1 cycles

 The electronic state is 1-A.
 Alpha  occ. eigenvalues --  -19.42287 -19.41772 -19.41709 -19.38948 -14.60318
 Alpha  occ. eigenvalues --  -14.57648 -10.46932 -10.46879 -10.45159 -10.44645
 Alpha  occ. eigenvalues --  -10.44351 -10.43653 -10.42963 -10.42685 -10.40645
 Alpha  occ. eigenvalues --  -10.39960  -1.28672  -1.26301  -1.25205  -1.22931
 Alpha  occ. eigenvalues --   -1.19505  -1.16723  -1.04791  -1.01104  -0.99636
 Alpha  occ. eigenvalues --   -0.93988  -0.88798  -0.86518  -0.85561  -0.79832
 Alpha  occ. eigenvalues --   -0.79166  -0.79067  -0.78052  -0.77835  -0.76523
 Alpha  occ. eigenvalues --   -0.74996  -0.72944  -0.71554  -0.70081  -0.68721
 Alpha  occ. eigenvalues --   -0.66390  -0.65624  -0.65075  -0.63734  -0.63145
 Alpha  occ. eigenvalues --   -0.62642  -0.61733  -0.61103  -0.59933  -0.59372
 Alpha  occ. eigenvalues --   -0.58112  -0.57126  -0.56334  -0.55690  -0.55211
 Alpha  occ. eigenvalues --   -0.54821  -0.54640  -0.53316  -0.52668  -0.51657
 Alpha  occ. eigenvalues --   -0.50107  -0.49753  -0.46416  -0.44184
 Alpha virt. eigenvalues --   -0.09928  -0.08248  -0.06709  -0.05259  -0.04852
 Alpha virt. eigenvalues --   -0.04377  -0.03465  -0.03115  -0.02731  -0.02315
 Alpha virt. eigenvalues --   -0.01704  -0.01475  -0.00800  -0.00621  -0.00321

 Mulliken charges:
               1
     1  N   -1.030499
     2  C    1.227256
     3  C    1.140938
     4  C    0.801893
     5  C    1.375281
     6  C    0.338218
     7  C    1.064279
     8  N   -0.685768
     9  C    0.471273
    10  C    0.431038
    11  C    1.339413
    12  O   -0.476764
    13  O   -0.559626
    14  H   -0.584754
    15  H   -0.275957
    16  H   -0.323987
    17  H   -0.529556
    18  H   -0.294093
    19  H   -0.542529
    20  H   -0.860142
    21  H   -1.383835
    22  H   -0.651805
    23  H   -0.592058
    24  H   -0.901831
    25  C    0.980627
    26  H    0.506551
    27  H    0.559380
    28  H    0.166949
    29  H    0.611346
    30  H    0.141218
    31  O   -0.499628
    32  H    0.296490
    33  H    0.384802
    34  H   -0.234838
    35  H   -0.178815
    36  H   -0.216696
    37  O   -0.326515
    38  H    0.154093
    39  H    0.158648
 Sum of Mulliken charges =   1.00000

 Dipole moment (field-independent basis, Debye):
    X=             -3.9489    Y=              0.3852    Z=              0.1652  Tot=              3.9711
 Quadrupole moment (field-independent basis, Debye-Ang):
   XX=            -36.3340   YY=            -60.5347   ZZ=            -88.0666
   XY=              8.0330   XZ=              3.9042   YZ=              1.9973

  Exact polarizability: 172.772  -2.682 190.359  -3.231   0.931 128.825
 Approx polarizability: 189.151   0.898 194.016  -4.910   0.268 145.519

 ******    1 imaginary frequencies (negative Signs) ******

                      1                      2                      3
                      A                      A                      A
 Frequencies --   -476.7190                11.9418                16.4085
 Red. masses --      1.3380                 4.5396                 4.2203
 Frc consts  --      0.1792                 0.0004                 0.0007
 IR Inten    --   2287.7927                 0.8742                 0.1878

                      4                      5                      6
                      A                      A                      A
 Frequencies --     46.7260                54.8229                56.9588
 Red. masses --      4.2684                 3.5797                 3.8176
 Frc consts  --      0.0055                 0.0063                 0.0073
 IR Inten    --      1.8561                 1.7600                 1.0056

                      7                      8                      9
                      A                      A                      A
 Frequencies --     72.0886                78.9494                79.9318
 Red. masses --      2.8037                 1.8290                 1.5115
 Frc consts  --      0.0086                 0.0067                 0.0057
 IR Inten    --      0.9049                13.8223                 8.3331

                     10                     11                     12
                      A                      A                      A
 Frequencies --    101.8907               107.7047               123.6362
 Red. masses --      4.3336                 4.8199                 4.1052
 Frc consts  --      0.0265                 0.0329                 0.0370
 IR Inten    --     11.1973                13.9465                 5.5042

                     13                     14                     15
                      A                      A                      A
 Frequencies --    158.8693               169.2396               187.6986
 Red. masses --      2.9155                 1.9186                 1.4423
 Frc consts  --      0.0434                 0.0324                 0.0299
 IR Inten    --     29.4797                 6.0362                33.8171

                     16                     17                     18
                      A                      A                      A
 Frequencies --    211.2869               215.5269               247.9229
 Red. masses --      1.3271                 2.6308                 1.2485
 Frc consts  --      0.0349                 0.0720                 0.0452
 IR Inten    --    175.0792                61.1095                16.1268

                     19                     20                     21
                      A                      A                      A
 Frequencies --    253.4934               262.9845               306.3263
 Red. masses --      3.7818                 2.6638                 1.1763
 Frc consts  --      0.1432                 0.1085                 0.0650
 IR Inten    --     31.1627                 0.6856                18.3061

                     22                     23                     24
                      A                      A                      A
 Frequencies --    311.4937               318.1231               388.3220
 Red. masses --      3.7483                 4.2723                 1.3594
 Frc consts  --      0.2143                 0.2547                 0.1208
 IR Inten    --     33.2795                12.6326                99.9894

                     25                     26                     27
                      A                      A                      A
 Frequencies --    404.7567               418.5131               421.1899
 Red. masses --      2.8243                 2.9177                 3.0491
 Frc consts  --      0.2726                 0.3011                 0.3187
 IR Inten    --      2.5107                24.3522                 9.5976

                     28                     29                     30
                      A                      A                      A
 Frequencies --    499.0582               546.9680               581.0270
 Red. masses --      1.8857                 3.7917                 2.9941
 Frc consts  --      0.2767                 0.6684                 0.5955
 IR Inten    --    685.1204                34.2024                 8.8233

                     31                     32                     33
                      A                      A                      A
 Frequencies --    626.0898               632.3843               658.7207
 Red. masses --      5.2235                 1.7309                 1.5258
 Frc consts  --      1.2064                 0.4078                 0.3901
 IR Inten    --     20.0973                24.5385                25.7100

                     34                     35                     36
                      A                      A                      A
 Frequencies --    672.6940               684.8715               704.8420
 Red. masses --      5.0866                 3.9751                 1.1011
 Frc consts  --      1.3562                 1.0985                 0.3223
 IR Inten    --     13.5758                13.8745                32.8687

                     37                     38                     39
                      A                      A                      A
 Frequencies --    731.4971               747.6730               782.3340
 Red. masses --      1.8867                 1.2353                 1.4384
 Frc consts  --      0.5948                 0.4069                 0.5187
 IR Inten    --     34.5244               416.7597                 8.5716

                     40                     41                     42
                      A                      A                      A
 Frequencies --    839.0292               848.4193               889.4574
 Red. masses --      1.5985                 2.3167                 1.0602
 Frc consts  --      0.6630                 0.9825                 0.4942
 IR Inten    --     26.3056                23.6859                64.4557

                     43                     44                     45
                      A                      A                      A
 Frequencies --    896.9722               934.0899               939.7372
 Red. masses --      1.0817                 1.6796                 3.1374
 Frc consts  --      0.5128                 0.8634                 1.6324
 IR Inten    --    122.2169                18.7450                 6.6193

                     46                     47                     48
                      A                      A                      A
 Frequencies --    955.9852               962.5416               984.5558
 Red. masses --      2.0799                 1.5830                 1.4545
 Frc consts  --      1.1199                 0.8641                 0.8307
 IR Inten    --     36.0276                15.7143                 6.4278

                     49                     50                     51
                      A                      A                      A
 Frequencies --   1001.3247              1007.0463              1026.6429
 Red. masses --      1.0752                 1.9381                 1.3973
 Frc consts  --      0.6352                 1.1581                 0.8677
 IR Inten    --    241.0604                10.6042                 1.6014

                     52                     53                     54
                      A                      A                      A
 Frequencies --   1056.5425              1059.3062              1073.1307
 Red. masses --      2.5873                 4.0968                 1.8411
 Frc consts  --      1.7017                 2.7085                 1.2492
 IR Inten    --      2.7765                 3.2879                26.2612

                     55                     56                     57
                      A                      A                      A
 Frequencies --   1102.6775              1118.7702              1143.9030
 Red. masses --      2.0946                 2.2942                 1.2761
 Frc consts  --      1.5006                 1.6918                 0.9838
 IR Inten    --     27.7370                20.5021                 4.1911

                     58                     59                     60
                      A                      A                      A
 Frequencies --   1153.8244              1194.4987              1216.3130
 Red. masses --      1.4157                 1.9501                 1.0912
 Frc consts  --      1.1105                 1.6394                 0.9512
 IR Inten    --     21.4129                12.9518               129.8124

                     61                     62                     63
                      A                      A                      A
 Frequencies --   1217.9465              1235.5473              1243.9355
 Red. masses --      1.4824                 1.4061                 1.7704
 Frc consts  --      1.2956                 1.2647                 1.6140
 IR Inten    --     32.4567                 7.1532                18.8297

                     64                     65                     66
                      A                      A                      A
 Frequencies --   1259.8755              1263.4872              1289.3821
 Red. masses --      1.7707                 1.7028                 1.5985
 Frc consts  --      1.6560                 1.6016                 1.5657
 IR Inten    --     20.8316                10.8468                 3.5569

                     67                     68                     69
                      A                      A                      A
 Frequencies --   1299.4628              1325.1447              1330.9436
 Red. masses --      1.3527                 3.7177                 1.3868
 Frc consts  --      1.3458                 3.8464                 1.4473
 IR Inten    --     10.7483                 3.7877                 2.1571

                     70                     71                     72
                      A                      A                      A
 Frequencies --   1361.5423              1372.6393              1382.1657
 Red. masses --      1.3571                 1.4927                 1.4929
 Frc consts  --      1.4822                 1.6570                 1.6804
 IR Inten    --      4.1786                 3.8941                 5.6161

                     73                     74                     75
                      A                      A                      A
 Frequencies --   1411.4586              1449.7940              1467.9273
 Red. masses --      1.6295                 1.2067                 1.2075
 Frc consts  --      1.9127                 1.4944                 1.5330
 IR Inten    --      5.7581                 1.0932                47.3045

                     76                     77                     78
                      A                      A                      A
 Frequencies --   1482.5937              1485.5948              1489.9675
 Red. masses --      1.0558                 1.1039                 1.2676
 Frc consts  --      1.3674                 1.4355                 1.6580
 IR Inten    --     10.6095                13.1779                11.4475

                     79                     80                     81
                      A                      A                      A
 Frequencies --   1490.9348              1505.7037              1521.8571
 Red. masses --      1.3155                 1.0939                 1.2022
 Frc consts  --      1.7229                 1.4612                 1.6404
 IR Inten    --     29.0666                11.5746                 2.7721

                     82                     83                     84
                      A                      A                      A
 Frequencies --   1530.4156              1578.5649              1635.5360
 Red. masses --      1.9222                 1.1019                 1.0885
 Frc consts  --      2.6526                 1.6178                 1.7155
 IR Inten    --      7.8853                32.2032                74.2177

                     85                     86                     87
                      A                      A                      A
 Frequencies --   1666.7568              1691.8568              1714.8055
 Red. masses --      5.2241                 4.7038                 1.0993
 Frc consts  --      8.5507                 7.9327                 1.9045
 IR Inten    --     31.3967                33.2186                38.3198

                     88                     89                     90
                      A                      A                      A
 Frequencies --   1737.0417              1780.0738              1984.7494
 Red. masses --      1.0696                 1.0998                 1.1091
 Frc consts  --      1.9014                 2.0532                 2.5742
 IR Inten    --    342.5695               252.7734              3064.6392

                     91                     92                     93
                      A                      A                      A
 Frequencies --   2975.2675              2998.4044              3001.4838
 Red. masses --      1.0838                 1.0564                 1.0633
 Frc consts  --      5.6528                 5.5959                 5.6436
 IR Inten    --    148.7307               340.8019                22.6705

                     94                     95                     96
                      A                      A                      A
 Frequencies --   3080.2818              3088.9182              3104.2202
 Red. masses --      1.0729                 1.0634                 1.0689
 Frc consts  --      5.9975                 5.9782                 6.0688
 IR Inten    --   1858.0959                87.7025                25.9020

                     97                     98                     99
                      A                      A                      A
 Frequencies --   3109.3187              3117.7981              3142.6842
 Red. masses --      1.0872                 1.0883                 1.1047
 Frc consts  --      6.1927                 6.2330                 6.4283
 IR Inten    --     22.8122                86.3648                 1.0842

                    100                    101                    102
                      A                      A                      A
 Frequencies --   3149.7203              3163.8176              3206.9077
 Red. masses --      1.1045                 1.1060                 1.0916
 Frc consts  --      6.4559                 6.5230                 6.6142
 IR Inten    --     14.6010                22.4275                 1.6067

                    103                    104                    105
                      A                      A                      A
 Frequencies --   3217.5103              3222.2837              3243.1901
 Red. masses --      1.0920                 1.0918                 1.0987
 Frc consts  --      6.6608                 6.6791                 6.8086
 IR Inten    --      3.5567                 9.8752                 0.5401

                    106                    107                    108
                      A                      A                      A
 Frequencies --   3276.9839              3445.4028              3873.8378
 Red. masses --      1.0691                 1.0692                 1.0451
 Frc consts  --      6.7639                 7.4779                 9.2405
 IR Inten    --    709.4775              1189.4272                34.6225

                    109                    110                    111
                      A                      A                      A
 Frequencies --   3905.2330              3943.8826              3978.2020
 Red. masses --      1.0658                 1.0664                 1.0832
 Frc consts  --      9.5765                 9.7727                10.0999
 IR Inten    --    126.1428                92.9284               125.4929

 - Thermochemistry -
 -------------------
 Temperature   298.150 Kelvin.  Pressure   1.00000 Atm.
 Atom     1 has atomic number  7 and mass  14.00307

 Molecular mass:   235.16578 amu.
 Principal axes and moments of inertia in atomic units:
                           1         2         3
     Eigenvalues --  4053.357295206.858517825.92182
           X            0.99981  -0.01897   0.00546
           Y            0.01894   0.99981   0.00469
           Z           -0.00555  -0.00458   0.99997
 This molecule is an asymmetric top.
 Rotational symmetry number  1.
 Warning -- assumption of classical behavior for rotation
           may cause significant error
 Rotational temperatures (Kelvin)      0.02137     0.01663     0.01107
 Rotational constants (GHZ):           0.44525     0.34661     0.23061
    1 imaginary frequencies ignored.
 Zero-point vibrational energy     883757.9 (Joules/Mol)
                                  211.22321 (Kcal/Mol)
 Warning -- explicit consideration of  29 degrees of freedom as
           vibrations may cause significant error
 Vibrational temperatures:     17.18    23.61    67.23    78.88    81.95
          (Kelvin)            103.72   113.59   115.00   146.60   154.96
                              177.88   228.58   243.50   270.06   303.99
                              310.10   356.71   364.72   378.38   440.74
                              448.17   457.71   558.71   582.35   602.15
                              606.00   718.03   786.96   835.97   900.80
                              909.86   947.75   967.86   985.38  1014.11
                             1052.46  1075.73  1125.60  1207.18  1220.69
                             1279.73  1290.54  1343.95  1352.07  1375.45
                             1384.88  1416.56  1440.68  1448.91  1477.11
                             1520.13  1524.11  1544.00  1586.51  1609.66
                             1645.82  1660.10  1718.62  1750.00  1752.35
                             1777.68  1789.75  1812.68  1817.88  1855.13
                             1869.64  1906.59  1914.93  1958.96  1974.92
                             1988.63  2030.77  2085.93  2112.02  2133.12
                             2137.44  2143.73  2145.12  2166.37  2189.61
                             2201.93  2271.20  2353.17  2398.09  2434.20
                             2467.22  2499.22  2561.13  2855.61  4280.75
                             4314.04  4318.47  4431.84  4444.26  4466.28
                             4473.62  4485.82  4521.62  4531.74  4552.03
                             4614.02  4629.28  4636.15  4666.23  4714.85
                             4957.17  5573.59  5618.76  5674.37  5723.75

 Zero-point correction=                           0.336606 (Hartree/Particle)
 Thermal correction to Energy=                    0.357617
 Thermal correction to Enthalpy=                  0.358561
 Thermal correction to Gibbs Free Energy=         0.283739
 Sum of electronic and zero-point Energies=           -804.683046
 Sum of electronic and thermal Energies=              -804.662035
 Sum of electronic and thermal Enthalpies=            -804.661091
 Sum of electronic and thermal Free Energies=         -804.735913

                     E (Thermal)             CV                S
                      KCal/Mol        Cal/Mol-Kelvin    Cal/Mol-Kelvin
 Total                  224.408             74.634            157.476
 Electronic               0.000              0.000              0.000
 Translational            0.889              2.981             42.267
 Rotational               0.889              2.981             33.468
 Vibrational            222.630             68.673             81.741
 Vibration     1          0.593              1.987              7.658
 Vibration     2          0.593              1.986              7.027
 Vibration     3          0.595              1.979              4.951
 Vibration     4          0.596              1.976              4.635
 Vibration     5          0.596              1.975              4.560
 Vibration     6          0.598              1.967              4.095
 Vibration     7          0.600              1.963              3.917
 Vibration     8          0.600              1.963              3.893
 Vibration     9          0.604              1.948              3.418
 Vibration    10          0.606              1.943              3.310
 Vibration    11          0.610              1.929              3.043
 Vibration    12          0.621              1.893              2.563
 Vibration    13          0.625              1.880              2.444
 Vibration    14          0.632              1.857              2.250
 Vibration    15          0.643              1.824              2.033
 Vibration    16          0.645              1.817              1.996
 Vibration    17          0.662              1.766              1.745
 Vibration    18          0.665              1.757              1.706
 Vibration    19          0.670              1.741              1.642
 Vibration    20          0.697              1.662              1.382
 Vibration    21          0.700              1.652              1.354
 Vibration    22          0.705              1.639              1.320
 Vibration    23          0.756              1.495              1.007
 Vibration    24          0.770              1.460              0.945
 Vibration    25          0.781              1.430              0.897
 Vibration    26          0.784              1.424              0.888
 Vibration    27          0.855              1.252              0.660
 Vibration    28          0.902              1.146              0.550
 Vibration    29          0.938              1.072              0.483

 Optimization completed on the basis of negligible forces.
    -- Stationary point found.
 Normal termination of Gaussian 16 at Fri Mar  3 05:47:46 2023.
