 Gaussian 16, Revision A.03,
 Gaussian 16:  ES64L-G16RevA.03 25-Dec-2016

 -----------------------------
 # wB97XD/aug-cc-pVDZ opt freq
 -----------------------------

 --------
 Nicotine
 --------
 Symbolic Z-matrix:
 Charge =  1 Multiplicity = 1

 SCF Done:  E(RwB97XD) =  -805.036834360     A.U. after   15 cycles
 Optimization completed.
    -- Stationary point found.
 Normal termination of Gaussian 16 at Mon Jul 19 14:14:56 2021.

 ----------------------------------------------------------------------
 #N Geom=AllCheck Guess=TCheck SCRF=Check GenChk RwB97XD/Aug-CC-pVDZ Fr
 eq
 ----------------------------------------------------------------------

 Structure from the checkpoint file:  "NicPyrNa4h3.chk"
 --------
 Nicotine
 --------
 Charge =  1 Multiplicity = 1

                         Standard orientation:
 ---------------------------------------------------------------------
 Center     Atomic      Atomic             Coordinates (Angstroms)
 Number     Number       Type             X           Y           Z
 ---------------------------------------------------------------------
      1          7           0        0.736950   -1.905372    0.599674
      2          6           0        1.139678   -1.259175   -0.705828
      3          6           0       -0.107587   -1.462290   -1.578340
      4          6           0       -0.791293   -2.741286   -1.035261
      5          6           0        0.031860   -3.156750    0.189293
      6          6           0        1.630936    0.152200   -0.514695
      7          6           0        0.741089    1.179239   -0.197551
      8          7           0        1.111392    2.444010    0.007796
      9          6           0        2.408186    2.745555   -0.109861
     10          6           0        3.378386    1.799620   -0.433690
     11          6           0        2.981583    0.481439   -0.635398
     12          8           0       -1.350611   -0.718966    1.795053
     13          8           0       -2.564783    0.820568    0.058660
     14          8           0       -1.506161    3.262169    0.656817
     15          1           0        0.801281   -3.898893   -0.056522
     16          1           0       -0.810952   -3.549175   -1.772716
     17          1           0       -1.825034   -2.528004   -0.745923
     18          1           0       -0.782108   -0.604157   -1.491897
     19          1           0        0.184911   -1.548322   -2.628934
     20          1           0       -0.562827   -3.517157    1.033446
     21          1           0        1.965102   -1.880065   -1.082049
     22          1           0       -0.325928    0.978752   -0.109867
     23          1           0        2.681680    3.787427    0.058873
     24          1           0        4.421685    2.094768   -0.526653
     25          1           0        3.718318   -0.281391   -0.892191
     26          6           0        1.839106   -2.110504    1.559643
     27          1           0        0.005029   -1.307405    1.070001
     28          1           0       -1.411182   -0.349923    2.678899
     29          1           0       -1.904701   -0.136981    1.208784
     30          1           0       -0.551303    3.268853    0.445675
     31          1           0       -1.800244    4.174701    0.655442
     32          1           0       -2.380644    1.767401    0.220124
     33          1           0       -3.503203    0.738187   -0.185637
     34          8           0       -5.221557    0.450622   -0.660807
     35          1           0       -5.584819    0.738073   -1.502626
     36          1           0       -5.952867    0.481760   -0.038317
     37          1           0        2.605741   -2.744087    1.100224
     38          1           0        1.441385   -2.598848    2.454323
     39          1           0        2.265507   -1.139409    1.827577
 ---------------------------------------------------------------------

 SCF Done:  E(RwB97XD) =  -805.036834360     A.U. after    1 cycles

 The electronic state is 1-A.
 Alpha  occ. eigenvalues --  -19.39425 -19.38728 -19.36443 -19.36285 -14.67964
 Alpha  occ. eigenvalues --  -14.57757 -10.49055 -10.47666 -10.47560 -10.45631
 Alpha  occ. eigenvalues --  -10.45621 -10.44559 -10.44484 -10.42914 -10.42887
 Alpha  occ. eigenvalues --  -10.42833  -1.24927  -1.23781  -1.22966  -1.21083
 Alpha  occ. eigenvalues --   -1.19812  -1.17486  -1.05737  -1.03712  -1.00649
 Alpha  occ. eigenvalues --   -0.96078  -0.93794  -0.88268  -0.85208  -0.84520
 Alpha  occ. eigenvalues --   -0.82317  -0.77185  -0.74552  -0.74470  -0.74107
 Alpha  occ. eigenvalues --   -0.73288  -0.72351  -0.71580  -0.70945  -0.69004
 Alpha  occ. eigenvalues --   -0.68600  -0.65771  -0.64853  -0.64489  -0.62379
 Alpha  occ. eigenvalues --   -0.62128  -0.61694  -0.61569  -0.61133  -0.60454
 Alpha  occ. eigenvalues --   -0.58728  -0.58096  -0.57618  -0.56968  -0.56053
 Alpha  occ. eigenvalues --   -0.55352  -0.54156  -0.52400  -0.52169  -0.50645
 Alpha  occ. eigenvalues --   -0.49716  -0.49092  -0.47082  -0.46135
 Alpha virt. eigenvalues --   -0.09050  -0.08030  -0.06359  -0.05451  -0.04922
 Alpha virt. eigenvalues --   -0.04470  -0.03643  -0.02984  -0.02852  -0.02623
 Alpha virt. eigenvalues --   -0.02117  -0.01580  -0.01004  -0.00767  -0.00676

 Mulliken charges:
               1
     1  N   -1.186630
     2  C    0.908791
     3  C    1.167773
     4  C    0.762448
     5  C    1.305315
     6  C    0.710411
     7  C    1.156943
     8  N   -0.425601
     9  C    0.190293
    10  C    0.593735
    11  C    1.253414
    12  O   -0.422277
    13  O   -0.580275
    14  O   -0.421754
    15  H   -0.481381
    16  H   -0.241320
    17  H   -0.290113
    18  H   -0.377829
    19  H   -0.499879
    20  H   -0.504162
    21  H   -0.921349
    22  H   -1.130587
    23  H   -0.577206
    24  H   -0.615753
    25  H   -0.899419
    26  C    1.135611
    27  H    0.251467
    28  H    0.167078
    29  H    0.315794
    30  H    0.249599
    31  H    0.190716
    32  H    0.298051
    33  H    0.292929
    34  O   -0.303471
    35  H    0.143053
    36  H    0.139540
    37  H   -0.124765
    38  H   -0.120807
    39  H   -0.108385
 Sum of Mulliken charges =   1.00000

 Dipole moment (field-independent basis, Debye):
    X=             -0.0683    Y=             -2.8110    Z=              0.4509  Tot=              2.8478
 Quadrupole moment (field-independent basis, Debye-Ang):
   XX=            -37.3471   YY=            -61.3356   ZZ=            -85.7644
   XY=             -8.8986   XZ=              3.7660   YZ=             -1.6365

  Exact polarizability: 175.711  10.028 179.450  -1.123   3.584 127.220
 Approx polarizability: 186.622   3.387 186.799  -3.982   6.314 146.660

                      1                      2                      3
                      A                      A                      A
 Frequencies --     17.6822                20.4037                36.8129
 Red. masses --      3.4394                 4.4488                 2.9841
 Frc consts  --      0.0006                 0.0011                 0.0024
 IR Inten    --      0.3521                 0.8202                 1.1765

                      4                      5                      6
                      A                      A                      A
 Frequencies --     44.7228                47.7347                59.2798
 Red. masses --      4.2676                 4.7883                 3.5788
 Frc consts  --      0.0050                 0.0064                 0.0074
 IR Inten    --      1.9642                 0.4851                 1.9431

                      7                      8                      9
                      A                      A                      A
 Frequencies --     63.9604                91.5041                97.1726
 Red. masses --      3.8382                 4.9908                 4.8322
 Frc consts  --      0.0093                 0.0246                 0.0269
 IR Inten    --      2.6977                 5.6037                 3.3518

                     10                     11                     12
                      A                      A                      A
 Frequencies --    102.5744               106.6944               145.9674
 Red. masses --      4.0364                 1.0475                 2.0919
 Frc consts  --      0.0250                 0.0070                 0.0263
 IR Inten    --      2.2868                19.8436                 4.3476

                     13                     14                     15
                      A                      A                      A
 Frequencies --    158.2501               175.6258               185.6601
 Red. masses --      2.0126                 2.3401                 3.3009
 Frc consts  --      0.0297                 0.0425                 0.0670
 IR Inten    --     53.7484                59.9208                30.0589

                     16                     17                     18
                      A                      A                      A
 Frequencies --    209.6274               223.5330               231.4930
 Red. masses --      1.1904                 2.1997                 2.6146
 Frc consts  --      0.0308                 0.0648                 0.0826
 IR Inten    --    170.9924                 5.6145                 6.7482

                     19                     20                     21
                      A                      A                      A
 Frequencies --    238.8322               247.8147               250.4250
 Red. masses --      1.4935                 1.3710                 1.6452
 Frc consts  --      0.0502                 0.0496                 0.0608
 IR Inten    --      5.6047                29.3045                18.4658

                     22                     23                     24
                      A                      A                      A
 Frequencies --    258.4634               269.8730               330.7346
 Red. masses --      2.9851                 1.9167                 4.1781
 Frc consts  --      0.1175                 0.0822                 0.2693
 IR Inten    --      4.4748               127.2375                 1.0189

                     25                     26                     27
                      A                      A                      A
 Frequencies --    355.5762               385.4383               413.0181
 Red. masses --      5.0106                 2.9773                 3.0246
 Frc consts  --      0.3733                 0.2606                 0.3040
 IR Inten    --     16.2788                 1.2414                 0.7263

                     28                     29                     30
                      A                      A                      A
 Frequencies --    433.4938               506.5633               536.0111
 Red. masses --      2.9243                 1.1151                 2.7045
 Frc consts  --      0.3238                 0.1686                 0.4578
 IR Inten    --      8.2727               105.5393                 3.4855

                     31                     32                     33
                      A                      A                      A
 Frequencies --    554.2421               573.4013               630.2860
 Red. masses --      1.7464                 1.6854                 3.2913
 Frc consts  --      0.3161                 0.3265                 0.7704
 IR Inten    --     13.5842                 7.6119                 5.6605

                     34                     35                     36
                      A                      A                      A
 Frequencies --    650.1368               657.5457               677.1471
 Red. masses --      4.0041                 1.1748                 4.9236
 Frc consts  --      0.9972                 0.2993                 1.3302
 IR Inten    --     21.3077                84.8029                 0.9857

                     37                     38                     39
                      A                      A                      A
 Frequencies --    699.8337               734.9102               744.9760
 Red. masses --      1.0821                 1.7049                 1.0706
 Frc consts  --      0.3123                 0.5425                 0.3501
 IR Inten    --     26.7306                11.1460                19.8090

                     40                     41                     42
                      A                      A                      A
 Frequencies --    765.4479               788.3769               819.2089
 Red. masses --      1.1234                 1.3989                 1.9116
 Frc consts  --      0.3878                 0.5123                 0.7558
 IR Inten    --    204.7587                 2.2095                15.3090

                     43                     44                     45
                      A                      A                      A
 Frequencies --    839.1877               917.4130               932.9544
 Red. masses --      1.7945                 3.3753                 2.3231
 Frc consts  --      0.7446                 1.6737                 1.1914
 IR Inten    --      8.1070                 5.8945                14.9238

                     46                     47                     48
                      A                      A                      A
 Frequencies --    947.5726               971.9219               987.7498
 Red. masses --      1.9500                 1.3078                 1.5717
 Frc consts  --      1.0316                 0.7279                 0.9035
 IR Inten    --      3.0054                36.5310                 2.6640

                     49                     50                     51
                      A                      A                      A
 Frequencies --    995.5905              1014.7525              1034.5807
 Red. masses --      1.6371                 1.2648                 1.4438
 Frc consts  --      0.9560                 0.7674                 0.9105
 IR Inten    --     41.3985                29.2376                 3.7537

                     52                     53                     54
                      A                      A                      A
 Frequencies --   1047.0470              1056.5497              1062.5612
 Red. masses --      1.8456                 3.8948                 2.6099
 Frc consts  --      1.1921                 2.5616                 1.7362
 IR Inten    --     25.5411                19.6541                 4.0759

                     55                     56                     57
                      A                      A                      A
 Frequencies --   1087.8321              1103.4696              1133.4284
 Red. masses --      2.2320                 2.2464                 1.3297
 Frc consts  --      1.5562                 1.6116                 1.0064
 IR Inten    --      2.0877                 2.2142                 3.2320

                     58                     59                     60
                      A                      A                      A
 Frequencies --   1154.0048              1157.6408              1211.8064
 Red. masses --      1.4004                 2.7904                 1.7604
 Frc consts  --      1.0988                 2.2033                 1.5231
 IR Inten    --      5.9082                17.1517                 2.1052

                     61                     62                     63
                      A                      A                      A
 Frequencies --   1223.1539              1237.8379              1247.4449
 Red. masses --      1.4625                 1.6699                 1.2956
 Frc consts  --      1.2892                 1.5075                 1.1878
 IR Inten    --      9.4418                 2.7700                10.3476

                     64                     65                     66
                      A                      A                      A
 Frequencies --   1268.4826              1286.3452              1302.8113
 Red. masses --      1.5637                 1.2304                 1.7204
 Frc consts  --      1.4824                 1.1995                 1.7205
 IR Inten    --      2.4950                 4.1253                 0.7859

                     67                     68                     69
                      A                      A                      A
 Frequencies --   1316.7656              1339.3205              1371.7426
 Red. masses --      2.7551                 1.3721                 1.2421
 Frc consts  --      2.8145                 1.4501                 1.3771
 IR Inten    --      1.7317                 1.1435                 0.5891

                     70                     71                     72
                      A                      A                      A
 Frequencies --   1379.1591              1383.4303              1408.1809
 Red. masses --      1.5245                 1.3362                 1.5307
 Frc consts  --      1.7084                 1.5067                 1.7883
 IR Inten    --      6.3772                 2.6601                 2.3501

                     73                     74                     75
                      A                      A                      A
 Frequencies --   1452.3018              1480.0416              1481.5483
 Red. masses --      1.1840                 1.5339                 1.3496
 Frc consts  --      1.4713                 1.9797                 1.7453
 IR Inten    --      2.4564                12.6676                18.6273

                     76                     77                     78
                      A                      A                      A
 Frequencies --   1485.7830              1490.1796              1497.2743
 Red. masses --      1.0582                 1.0776                 1.1324
 Frc consts  --      1.3764                 1.4099                 1.4957
 IR Inten    --      8.8520                 7.4629                50.0853

                     79                     80                     81
                      A                      A                      A
 Frequencies --   1506.5105              1519.1701              1537.6837
 Red. masses --      1.1258                 1.1147                 2.2346
 Frc consts  --      1.5055                 1.5158                 3.1130
 IR Inten    --     33.0828                 5.1810                 6.6372

                     82                     83                     84
                      A                      A                      A
 Frequencies --   1609.2180              1629.6717              1653.8832
 Red. masses --      1.1337                 1.0851                 1.2206
 Frc consts  --      1.7297                 1.6980                 1.9671
 IR Inten    --     19.7976               139.4793                60.8886

                     85                     86                     87
                      A                      A                      A
 Frequencies --   1660.0018              1669.5460              1685.5232
 Red. masses --      1.8400                 1.5744                 4.2280
 Frc consts  --      2.9873                 2.5857                 7.0770
 IR Inten    --      7.5253                24.0744                41.5955

                     88                     89                     90
                      A                      A                      A
 Frequencies --   1703.9193              2909.2244              3074.6745
 Red. masses --      1.1026                 1.0912                 1.0838
 Frc consts  --      1.8861                 5.4415                 6.0366
 IR Inten    --      9.1812              1124.7149                 1.5200

                     91                     92                     93
                      A                      A                      A
 Frequencies --   3080.5176              3098.1687              3109.5328
 Red. masses --      1.0357                 1.0634                 1.0617
 Frc consts  --      5.7905                 6.0137                 6.0482
 IR Inten    --      2.2623                 3.7249                 8.0779

                     94                     95                     96
                      A                      A                      A
 Frequencies --   3116.5705              3159.5299              3171.6373
 Red. masses --      1.0634                 1.1070                 1.1062
 Frc consts  --      6.0858                 6.5109                 6.5562
 IR Inten    --      8.1279                 1.1078                 1.8944

                     97                     98                     99
                      A                      A                      A
 Frequencies --   3180.4287              3181.9997              3191.5824
 Red. masses --      1.1075                 1.1064                 1.1069
 Frc consts  --      6.6005                 6.6004                 6.6434
 IR Inten    --      3.4910                 2.3995                 1.3465

                    100                    101                    102
                      A                      A                      A
 Frequencies --   3195.4085              3210.0366              3230.4616
 Red. masses --      1.0918                 1.0919                 1.0879
 Frc consts  --      6.5683                 6.6293                 6.6892
 IR Inten    --      3.6168                 4.9105               118.3225

                    103                    104                    105
                      A                      A                      A
 Frequencies --   3238.4691              3256.8000              3539.9542
 Red. masses --      1.0980                 1.0692                 1.0621
 Frc consts  --      6.7849                 6.6818                 7.8418
 IR Inten    --      5.7296               897.0190               618.7251

                    106                    107                    108
                      A                      A                      A
 Frequencies --   3590.3470              3679.5226              3876.9304
 Red. masses --      1.0561                 1.0770                 1.0453
 Frc consts  --      8.0210                 8.5914                 9.2569
 IR Inten    --    636.8064               912.1581                23.7841

                    109                    110                    111
                      A                      A                      A
 Frequencies --   3940.5336              3958.7192              3982.3931
 Red. masses --      1.0665                 1.0689                 1.0828
 Frc consts  --      9.7568                 9.8700                10.1175
 IR Inten    --     89.6449               134.9179               105.9203

 - Thermochemistry -
 -------------------
 Temperature   298.150 Kelvin.  Pressure   1.00000 Atm.
 Atom     1 has atomic number  7 and mass  14.00307

 Molecular mass:   235.16578 amu.
 Principal axes and moments of inertia in atomic units:
                           1         2         3
     Eigenvalues --  3949.735645022.317007547.16108
           X            0.99879  -0.04874   0.00690
           Y            0.04874   0.99881   0.00030
           Z           -0.00691   0.00004   0.99998
 This molecule is an asymmetric top.
 Rotational symmetry number  1.
 Warning -- assumption of classical behavior for rotation
           may cause significant error
 Rotational temperatures (Kelvin)      0.02193     0.01725     0.01148
 Rotational constants (GHZ):           0.45693     0.35934     0.23913
 Zero-point vibrational energy     903162.0 (Joules/Mol)
                                  215.86089 (Kcal/Mol)
 Warning -- explicit consideration of  32 degrees of freedom as
           vibrations may cause significant error
 Vibrational temperatures:     25.44    29.36    52.97    64.35    68.68
          (Kelvin)             85.29    92.02   131.65   139.81   147.58
                              153.51   210.01   227.69   252.69   267.12
                              301.61   321.61   333.07   343.63   356.55
                              360.31   371.87   388.29   475.85   511.59
                              554.56   594.24   623.70   728.83   771.20
                              797.43   825.00   906.84   935.40   946.06
                              974.26  1006.90  1057.37  1071.85  1101.31
                             1134.30  1178.66  1207.40  1319.95  1342.31
                             1363.35  1398.38  1421.15  1432.43  1460.00
                             1488.53  1506.47  1520.14  1528.79  1565.15
                             1587.65  1630.75  1660.36  1665.59  1743.52
                             1759.85  1780.97  1794.79  1825.06  1850.76
                             1874.45  1894.53  1926.98  1973.63  1984.30
                             1990.45  2026.06  2089.54  2129.45  2131.62
                             2137.71  2144.04  2154.24  2167.53  2185.75
                             2212.38  2315.31  2344.73  2379.57  2388.37
                             2402.10  2425.09  2451.56  4185.73  4423.77
                             4432.18  4457.57  4473.92  4484.05  4545.86
                             4563.28  4575.93  4578.19  4591.98  4597.48
                             4618.53  4647.91  4659.43  4685.81  5093.20
                             5165.71  5294.01  5578.04  5669.55  5695.71
                             5729.78

 Zero-point correction=                           0.343996 (Hartree/Particle)
 Thermal correction to Energy=                    0.366510
 Thermal correction to Enthalpy=                  0.367454
 Thermal correction to Gibbs Free Energy=         0.289579
 Sum of electronic and zero-point Energies=           -804.692838
 Sum of electronic and thermal Energies=              -804.670324
 Sum of electronic and thermal Enthalpies=            -804.669380
 Sum of electronic and thermal Free Energies=         -804.747255

                     E (Thermal)             CV                S
                      KCal/Mol        Cal/Mol-Kelvin    Cal/Mol-Kelvin
 Total                  229.989             78.535            163.903
 Electronic               0.000              0.000              0.000
 Translational            0.889              2.981             42.267
 Rotational               0.889              2.981             33.370
 Vibrational            228.211             72.574             88.266
 Vibration     1          0.593              1.986              6.879
 Vibration     2          0.593              1.986              6.595
 Vibration     3          0.594              1.982              5.424
 Vibration     4          0.595              1.980              5.038
 Vibration     5          0.595              1.978              4.909
 Vibration     6          0.597              1.974              4.481
 Vibration     7          0.597              1.972              4.331
 Vibration     8          0.602              1.955              3.628
 Vibration     9          0.603              1.951              3.510
 Vibration    10          0.605              1.947              3.405
 Vibration    11          0.606              1.944              3.328
 Vibration    12          0.617              1.907              2.724
 Vibration    13          0.621              1.893              2.571
 Vibration    14          0.628              1.872              2.374
 Vibration    15          0.632              1.859              2.271
 Vibration    16          0.642              1.826              2.047
 Vibration    17          0.649              1.805              1.930
 Vibration    18          0.653              1.793              1.867
 Vibration    19          0.657              1.781              1.812
 Vibration    20          0.661              1.766              1.746
 Vibration    21          0.663              1.762              1.728
 Vibration    22          0.667              1.748              1.672
 Vibration    23          0.674              1.729              1.597
 Vibration    24          0.713              1.614              1.256
 Vibration    25          0.731              1.564              1.141
 Vibration    26          0.754              1.501              1.018
 Vibration    27          0.777              1.442              0.916
 Vibration    28          0.794              1.397              0.847
 Vibration    29          0.862              1.235              0.642
 Vibration    30          0.891              1.170              0.574
 Vibration    31          0.910              1.130              0.535
 Vibration    32          0.930              1.089              0.498

                           ! Non-Optimized Parameters !
 Normal termination of Gaussian 16 at Mon Jul 19 15:24:59 2021.
