 Gaussian 16, Revision A.03,
 Gaussian 16:  ES64L-G16RevA.03 25-Dec-2016

 -----------------------------
 # wB97XD/aug-cc-pVDZ opt freq
 -----------------------------

 ----
 blah
 ----
 Symbolic Z-matrix:
 Charge =  1 Multiplicity = 1

 SCF Done:  E(RwB97XD) =  -382.521279457     A.U. after   11 cycles
 SCF Done:  E(RwB97XD) =  -382.521353960     A.U. after    9 cycles
 SCF Done:  E(RwB97XD) =  -382.521037696     A.U. after   10 cycles
 SCF Done:  E(RwB97XD) =  -382.521363174     A.U. after    9 cycles
 SCF Done:  E(RwB97XD) =  -382.521361889     A.U. after    9 cycles
 SCF Done:  E(RwB97XD) =  -382.521375135     A.U. after    9 cycles
 SCF Done:  E(RwB97XD) =  -382.521400039     A.U. after    9 cycles
 SCF Done:  E(RwB97XD) =  -382.521389490     A.U. after    9 cycles
 SCF Done:  E(RwB97XD) =  -382.521392406     A.U. after    9 cycles
 SCF Done:  E(RwB97XD) =  -382.521401629     A.U. after    9 cycles
 SCF Done:  E(RwB97XD) =  -382.521403938     A.U. after    8 cycles
 SCF Done:  E(RwB97XD) =  -382.521405650     A.U. after    8 cycles
 SCF Done:  E(RwB97XD) =  -382.521404397     A.U. after    8 cycles
 SCF Done:  E(RwB97XD) =  -382.521404666     A.U. after    9 cycles
 SCF Done:  E(RwB97XD) =  -382.521406399     A.U. after    9 cycles
 SCF Done:  E(RwB97XD) =  -382.521407006     A.U. after    7 cycles
 SCF Done:  E(RwB97XD) =  -382.521407110     A.U. after    7 cycles
 SCF Done:  E(RwB97XD) =  -382.521407195     A.U. after    7 cycles
 Optimization completed.
    -- Stationary point found.
 Normal termination of Gaussian 16 at Wed Apr 26 17:22:50 2023.

 ----------------------------------------------------------------------
 #N Geom=AllCheck Guess=TCheck SCRF=Check GenChk RwB97XD/Aug-CC-pVDZ Fr
 eq
 ----------------------------------------------------------------------

 Structure from the checkpoint file:  "/gscratch/scrubbed/gds001/Gau-21449.chk"
 ----
 blah
 ----
 Charge =  1 Multiplicity = 1

                         Standard orientation:
 ---------------------------------------------------------------------
 Center     Atomic      Atomic             Coordinates (Angstroms)
 Number     Number       Type             X           Y           Z
 ---------------------------------------------------------------------
      1          1           0       -4.349557    0.686295   -0.347619
      2          1           0        1.382474   -0.786769   -0.216461
      3          1           0       -0.121627   -0.085076    0.187910
      4          8           0       -1.389506   -0.116993    0.877049
      5          1           0        1.239330    0.870139   -0.193116
      6          1           0        2.241901    2.790136   -0.795906
      7          8           0        2.044188    2.224421   -0.043356
      8          1           0        2.048603    2.788584    0.735446
      9          1           0       -2.247101   -0.102867    0.393307
     10          8           0       -3.700703   -0.015015   -0.452108
     11          1           0       -4.146266   -0.729299   -0.915506
     12          8           0        0.770573   -0.003421   -0.338028
     13          1           0        2.448270   -2.676267   -0.819179
     14          8           0        2.279897   -2.084923   -0.079378
     15          1           0       -1.529238   -0.573291    1.710262
     16          1           0        2.997617   -2.214133    0.547435
 ---------------------------------------------------------------------

 SCF Done:  E(RwB97XD) =  -382.521407195     A.U. after    1 cycles

 The electronic state is 1-A.
 Alpha  occ. eigenvalues --  -19.48168 -19.45184 -19.45164 -19.43054 -19.42589
 Alpha  occ. eigenvalues --   -1.34378  -1.29564  -1.29270  -1.27854  -1.26392
 Alpha  occ. eigenvalues --   -0.84181  -0.83985  -0.79993  -0.79948  -0.78850
 Alpha  occ. eigenvalues --   -0.77394  -0.69492  -0.65794  -0.65567  -0.63308
 Alpha  occ. eigenvalues --   -0.61514  -0.58322  -0.58317  -0.56933  -0.55609
 Alpha virt. eigenvalues --   -0.09003  -0.06968  -0.06894  -0.05140  -0.03878
 Alpha virt. eigenvalues --   -0.02989  -0.02800  -0.01720  -0.00662   0.00095
 Alpha virt. eigenvalues --    0.00367   0.03806   0.04987   0.05045   0.06358

 Mulliken charges:
               1
     1  H    0.151026
     2  H    0.367203
     3  H    0.475578
     4  O   -0.384534
     5  H    0.365943
     6  H    0.157305
     7  O   -0.347470
     8  H    0.167232
     9  H    0.259299
    10  O   -0.331877
    11  H    0.157933
    12  O   -0.167319
    13  H    0.155687
    14  O   -0.346082
    15  H    0.153152
    16  H    0.166922
 Sum of Mulliken charges =   1.00000

 Dipole moment (field-independent basis, Debye):
    X=              1.0819    Y=             -0.0255    Z=              0.3657  Tot=              1.1424
 Quadrupole moment (field-independent basis, Debye-Ang):
   XX=             15.1282   YY=             -6.2480   ZZ=            -25.0030
   XY=             -0.4549   XZ=              1.5156   YZ=              0.8968

  Exact polarizability:  48.737  -0.301  44.792   0.134   0.189  39.447
 Approx polarizability:  42.274  -0.344  41.830   0.408   0.624  40.430

                      1                      2                      3
                      A                      A                      A
 Frequencies --     18.5084                41.4344                58.4958
 Red. masses --      4.1813                 5.3879                 4.8616
 Frc consts  --      0.0008                 0.0054                 0.0098
 IR Inten    --      0.5433                 1.2939                 0.7916

                      4                      5                      6
                      A                      A                      A
 Frequencies --     68.0619                75.7644               101.6166
 Red. masses --      3.7980                 3.1253                 1.0646
 Frc consts  --      0.0104                 0.0106                 0.0065
 IR Inten    --      1.5339                 1.8428                13.4988

                      7                      8                      9
                      A                      A                      A
 Frequencies --    110.4549               113.8734               177.4096
 Red. masses --      1.0942                 1.1287                 1.1409
 Frc consts  --      0.0079                 0.0086                 0.0212
 IR Inten    --     16.9423                28.6467               212.2447

                     10                     11                     12
                      A                      A                      A
 Frequencies --    217.5341               230.7186               237.5807
 Red. masses --      1.1776                 1.9449                 1.3956
 Frc consts  --      0.0328                 0.0610                 0.0464
 IR Inten    --    111.5209               103.2802                66.5347

                     13                     14                     15
                      A                      A                      A
 Frequencies --    249.4900               282.6622               295.3249
 Red. masses --      1.4384                 4.4720                 1.0936
 Frc consts  --      0.0528                 0.2105                 0.0562
 IR Inten    --    264.6758                84.8998                33.7412

                     16                     17                     18
                      A                      A                      A
 Frequencies --    333.2503               355.6544               383.5183
 Red. masses --      4.4703                 1.1218                 1.2143
 Frc consts  --      0.2925                 0.0836                 0.1052
 IR Inten    --    109.2135                11.4224                51.4219

                     19                     20                     21
                      A                      A                      A
 Frequencies --    416.2815               544.3324               735.4888
 Red. masses --      4.3730                 1.0691                 1.0258
 Frc consts  --      0.4465                 0.1866                 0.3269
 IR Inten    --    133.9689                31.7111                 0.9852

                     22                     23                     24
                      A                      A                      A
 Frequencies --    846.1879               929.4498              1007.1914
 Red. masses --      1.0477                 1.0394                 1.0486
 Frc consts  --      0.4420                 0.5290                 0.6267
 IR Inten    --    120.8613                60.5602                82.4075

                     25                     26                     27
                      A                      A                      A
 Frequencies --   1229.5196              1622.5811              1626.8750
 Red. masses --      1.0698                 1.0821                 1.0815
 Frc consts  --      0.9528                 1.6785                 1.6865
 IR Inten    --    195.1594                38.5559                70.5488

                     28                     29                     30
                      A                      A                      A
 Frequencies --   1636.5249              1647.7719              1682.8922
 Red. masses --      1.0869                 1.0816                 1.0453
 Frc consts  --      1.7150                 1.7303                 1.7443
 IR Inten    --      8.0949                45.5730                27.9349

                     31                     32                     33
                      A                      A                      A
 Frequencies --   1701.2189              2479.6844              3111.9093
 Red. masses --      1.0529                 1.1082                 1.1052
 Frc consts  --      1.7954                 4.0148                 6.3061
 IR Inten    --      9.3108              3354.9959              2511.1501

                     34                     35                     36
                      A                      A                      A
 Frequencies --   3162.5079              3448.2569              3867.1774
 Red. masses --      1.0389                 1.0642                 1.0449
 Frc consts  --      6.1220                 7.4552                 9.2065
 IR Inten    --    790.7449               978.5148                68.3256

                     37                     38                     39
                      A                      A                      A
 Frequencies --   3867.8286              3875.5204              3939.7222
 Red. masses --      1.0449                 1.0450                 1.0679
 Frc consts  --      9.2102                 9.2476                 9.7658
 IR Inten    --     25.6352                34.8139               121.7188

                     40                     41                     42
                      A                      A                      A
 Frequencies --   3969.6623              3969.9854              3980.3036
 Red. masses --      1.0837                 1.0837                 1.0834
 Frc consts  --     10.0616                10.0635                10.1130
 IR Inten    --     26.4939               280.8730               136.2743

 - Thermochemistry -
 -------------------
 Temperature   298.150 Kelvin.  Pressure   1.00000 Atm.
 Atom     1 has atomic number  1 and mass   1.00783

 Molecular mass:    91.06065 amu.
 Principal axes and moments of inertia in atomic units:
                           1         2         3
     Eigenvalues --   726.232541803.437402359.10160
           X            1.00000  -0.00024   0.00131
           Y            0.00024   1.00000   0.00130
           Z           -0.00131  -0.00130   1.00000
 This molecule is an asymmetric top.
 Rotational symmetry number  1.
 Warning -- assumption of classical behavior for rotation
           may cause significant error
 Rotational temperatures (Kelvin)      0.11926     0.04803     0.03671
 Rotational constants (GHZ):           2.48507     1.00072     0.76501
 Zero-point vibrational energy     350806.3 (Joules/Mol)
                                   83.84471 (Kcal/Mol)
 Warning -- explicit consideration of  20 degrees of freedom as
           vibrations may cause significant error
 Vibrational temperatures:     26.63    59.61    84.16    97.93   109.01
          (Kelvin)            146.20   158.92   163.84   255.25   312.98
                              331.95   341.83   358.96   406.69   424.91
                              479.47   511.71   551.80   598.94   783.17
                             1058.20  1217.48  1337.27  1449.12  1769.00
                             2334.53  2340.71  2354.59  2370.78  2421.31
                             2447.67  3567.71  4477.34  4550.14  4961.27
                             5564.01  5564.94  5576.01  5668.38  5711.46
                             5711.92  5726.77

 Zero-point correction=                           0.133615 (Hartree/Particle)
 Thermal correction to Energy=                    0.148088
 Thermal correction to Enthalpy=                  0.149032
 Thermal correction to Gibbs Free Energy=         0.091135
 Sum of electronic and zero-point Energies=           -382.387792
 Sum of electronic and thermal Energies=              -382.373320
 Sum of electronic and thermal Enthalpies=            -382.372375
 Sum of electronic and thermal Free Energies=         -382.430272

                     E (Thermal)             CV                S
                      KCal/Mol        Cal/Mol-Kelvin    Cal/Mol-Kelvin
 Total                   92.926             43.963            121.854
 Electronic               0.000              0.000              0.000
 Translational            0.889              2.981             39.439
 Rotational               0.889              2.981             29.514
 Vibrational             91.149             38.002             52.901
 Vibration     1          0.593              1.986              6.788
 Vibration     2          0.594              1.981              5.189
 Vibration     3          0.596              1.974              4.507
 Vibration     4          0.598              1.969              4.209
 Vibration     5          0.599              1.965              3.998
 Vibration     6          0.604              1.948              3.423
 Vibration     7          0.606              1.941              3.261
 Vibration     8          0.607              1.938              3.202
 Vibration     9          0.628              1.870              2.355
 Vibration    10          0.646              1.814              1.980
 Vibration    11          0.652              1.794              1.873
 Vibration    12          0.656              1.783              1.821
 Vibration    13          0.662              1.764              1.734
 Vibration    14          0.682              1.706              1.518
 Vibration    15          0.690              1.682              1.443
 Vibration    16          0.715              1.609              1.244
 Vibration    17          0.731              1.564              1.141
 Vibration    18          0.753              1.505              1.025
 Vibration    19          0.779              1.435              0.905
 Vibration    20          0.899              1.152              0.556

                           ! Non-Optimized Parameters !
 Normal termination of Gaussian 16 at Wed Apr 26 17:23:52 2023.
