 Gaussian 16, Revision A.03,
 Gaussian 16:  ES64L-G16RevA.03 25-Dec-2016

 -----------------------------
 # wB97XD/aug-cc-pVDZ opt freq
 -----------------------------

 ----
 blah
 ----
 Symbolic Z-matrix:
 Charge =  1 Multiplicity = 1

 SCF Done:  E(RwB97XD) =  -382.521280818     A.U. after   11 cycles
 SCF Done:  E(RwB97XD) =  -382.521357803     A.U. after    9 cycles
 SCF Done:  E(RwB97XD) =  -382.521088288     A.U. after   10 cycles
 SCF Done:  E(RwB97XD) =  -382.521375756     A.U. after   10 cycles
 SCF Done:  E(RwB97XD) =  -382.521383393     A.U. after    8 cycles
 SCF Done:  E(RwB97XD) =  -382.521386654     A.U. after    9 cycles
 SCF Done:  E(RwB97XD) =  -382.521396869     A.U. after    9 cycles
 SCF Done:  E(RwB97XD) =  -382.521399015     A.U. after    8 cycles
 SCF Done:  E(RwB97XD) =  -382.521401333     A.U. after    8 cycles
 SCF Done:  E(RwB97XD) =  -382.521401757     A.U. after    7 cycles
 SCF Done:  E(RwB97XD) =  -382.521402710     A.U. after    7 cycles
 SCF Done:  E(RwB97XD) =  -382.521403119     A.U. after    8 cycles
 SCF Done:  E(RwB97XD) =  -382.521403299     A.U. after    7 cycles
 SCF Done:  E(RwB97XD) =  -382.521403410     A.U. after    7 cycles
 SCF Done:  E(RwB97XD) =  -382.521403507     A.U. after    6 cycles
 SCF Done:  E(RwB97XD) =  -382.521403561     A.U. after    7 cycles
 SCF Done:  E(RwB97XD) =  -382.521403586     A.U. after    6 cycles
 SCF Done:  E(RwB97XD) =  -382.521403597     A.U. after    6 cycles
 Optimization completed.
    -- Stationary point found.
 Normal termination of Gaussian 16 at Wed Apr 26 17:24:05 2023.

 ----------------------------------------------------------------------
 #N Geom=AllCheck Guess=TCheck SCRF=Check GenChk RwB97XD/Aug-CC-pVDZ Fr
 eq
 ----------------------------------------------------------------------

 Structure from the checkpoint file:  "/gscratch/scrubbed/gds001/Gau-11522.chk"
 ----
 blah
 ----
 Charge =  1 Multiplicity = 1

                         Standard orientation:
 ---------------------------------------------------------------------
 Center     Atomic      Atomic             Coordinates (Angstroms)
 Number     Number       Type             X           Y           Z
 ---------------------------------------------------------------------
      1          1           0        3.897813   -0.651530   -1.213813
      2          1           0       -1.570391   -0.645156    0.136083
      3          1           0        0.002543   -0.311987    0.707925
      4          8           0        1.344555   -0.825547    0.850976
      5          1           0       -1.087473    0.939674    0.297534
      6          1           0       -1.594311    3.124967    0.457104
      7          8           0       -1.220256    2.458700   -0.127350
      8          1           0       -1.326832    2.785944   -1.025229
      9          1           0        2.114936   -0.529003    0.315076
     10          8           0        3.391754   -0.032704   -0.679418
     11          1           0        3.984627    0.699494   -0.487853
     12          8           0       -0.984918    0.000543    0.630364
     13          1           0       -3.348083   -1.987229   -0.159090
     14          8           0       -2.579906   -1.614025   -0.602010
     15          1           0        1.671672   -1.105649    1.709614
     16          1           0       -2.354330   -2.215268   -1.317843
 ---------------------------------------------------------------------

 SCF Done:  E(RwB97XD) =  -382.521403597     A.U. after    1 cycles

 The electronic state is 1-A.
 Alpha  occ. eigenvalues --  -19.48163 -19.45199 -19.45162 -19.43125 -19.42989
 Alpha  occ. eigenvalues --   -1.34371  -1.29572  -1.29278  -1.28030  -1.26654
 Alpha  occ. eigenvalues --   -0.84196  -0.84001  -0.80008  -0.79944  -0.78907
 Alpha  occ. eigenvalues --   -0.77674  -0.69509  -0.65879  -0.65563  -0.63143
 Alpha  occ. eigenvalues --   -0.61987  -0.58339  -0.58318  -0.57001  -0.55973
 Alpha virt. eigenvalues --   -0.09025  -0.07069  -0.06952  -0.05111  -0.04027
 Alpha virt. eigenvalues --   -0.03108  -0.02773  -0.01633  -0.00510  -0.00186
 Alpha virt. eigenvalues --    0.00162   0.03926   0.05093   0.05135   0.05546

 Mulliken charges:
               1
     1  H    0.151557
     2  H    0.364847
     3  H    0.471545
     4  O   -0.396787
     5  H    0.369024
     6  H    0.155164
     7  O   -0.348537
     8  H    0.167108
     9  H    0.276397
    10  O   -0.327091
    11  H    0.158479
    12  O   -0.159333
    13  H    0.155892
    14  O   -0.344764
    15  H    0.141205
    16  H    0.165295
 Sum of Mulliken charges =   1.00000

 Dipole moment (field-independent basis, Debye):
    X=             -0.3916    Y=              0.3465    Z=             -0.9854  Tot=              1.1155
 Quadrupole moment (field-independent basis, Debye-Ang):
   XX=             10.6444   YY=             -6.7958   ZZ=            -23.7567
   XY=              1.3789   XZ=              0.5401   YZ=              0.9599

  Exact polarizability:  47.763   0.623  44.996  -0.077  -0.187  40.069
 Approx polarizability:  42.193   0.288  41.854  -0.745   0.550  40.570

                      1                      2                      3
                      A                      A                      A
 Frequencies --     15.8904                34.4095                61.2862
 Red. masses --      4.3917                 5.0587                 4.6903
 Frc consts  --      0.0007                 0.0035                 0.0104
 IR Inten    --      0.3478                 1.4984                 0.9685

                      4                      5                      6
                      A                      A                      A
 Frequencies --     64.7432                84.7608               105.2872
 Red. masses --      3.6693                 2.2641                 1.0926
 Frc consts  --      0.0091                 0.0096                 0.0071
 IR Inten    --      0.9596                 3.1138                 6.4841

                      7                      8                      9
                      A                      A                      A
 Frequencies --    106.5759               127.8165               220.2823
 Red. masses --      1.3315                 1.0595                 1.1895
 Frc consts  --      0.0089                 0.0102                 0.0340
 IR Inten    --     31.6454                17.1251                79.6949

                     10                     11                     12
                      A                      A                      A
 Frequencies --    229.4597               241.7462               250.1894
 Red. masses --      3.2353                 1.2148                 1.2133
 Frc consts  --      0.1004                 0.0418                 0.0447
 IR Inten    --     12.5951               315.2128                60.9459

                     13                     14                     15
                      A                      A                      A
 Frequencies --    258.7228               282.5855               300.4586
 Red. masses --      1.2096                 4.4127                 1.0747
 Frc consts  --      0.0477                 0.2076                 0.0572
 IR Inten    --    253.1092                87.7606                26.2979

                     16                     17                     18
                      A                      A                      A
 Frequencies --    333.9718               354.4087               382.1913
 Red. masses --      4.4657                 1.1244                 1.2094
 Frc consts  --      0.2935                 0.0832                 0.1041
 IR Inten    --    102.7835                11.4420                59.6417

                     19                     20                     21
                      A                      A                      A
 Frequencies --    417.3580               552.4036               733.8547
 Red. masses --      4.2205                 1.0850                 1.0219
 Frc consts  --      0.4331                 0.1951                 0.3243
 IR Inten    --    149.6486                47.9775                 2.1720

                     22                     23                     24
                      A                      A                      A
 Frequencies --    839.4518               932.9788              1013.0064
 Red. masses --      1.0502                 1.0396                 1.0496
 Frc consts  --      0.4360                 0.5332                 0.6346
 IR Inten    --    116.1503                56.4408               104.6923

                     25                     26                     27
                      A                      A                      A
 Frequencies --   1230.1833              1614.9905              1625.8037
 Red. masses --      1.0684                 1.0785                 1.0809
 Frc consts  --      0.9526                 1.6573                 1.6834
 IR Inten    --    186.8603                32.7087                79.6183

                     28                     29                     30
                      A                      A                      A
 Frequencies --   1636.9920              1649.6953              1682.0041
 Red. masses --      1.0868                 1.0787                 1.0461
 Frc consts  --      1.7159                 1.7297                 1.7438
 IR Inten    --     12.1245                51.0112                26.5720

                     31                     32                     33
                      A                      A                      A
 Frequencies --   1703.1660              2484.0139              3110.3599
 Red. masses --      1.0555                 1.1083                 1.1056
 Frc consts  --      1.8039                 4.0292                 6.3019
 IR Inten    --      9.2971              3309.5712              2515.6299

                     34                     35                     36
                      A                      A                      A
 Frequencies --   3160.4325              3456.6451              3865.4030
 Red. masses --      1.0386                 1.0641                 1.0449
 Frc consts  --      6.1120                 7.4912                 9.1983
 IR Inten    --    698.0752               993.8243                61.1356

                     37                     38                     39
                      A                      A                      A
 Frequencies --   3866.3564              3870.7366              3934.7199
 Red. masses --      1.0449                 1.0452                 1.0680
 Frc consts  --      9.2032                 9.2262                 9.7418
 IR Inten    --     33.4558                33.6276               127.6800

                     40                     41                     42
                      A                      A                      A
 Frequencies --   3967.8196              3969.1071              3973.8806
 Red. masses --      1.0837                 1.0837                 1.0831
 Frc consts  --     10.0519                10.0590                10.0772
 IR Inten    --    118.5157               185.7630               135.7491

 - Thermochemistry -
 -------------------
 Temperature   298.150 Kelvin.  Pressure   1.00000 Atm.
 Atom     1 has atomic number  1 and mass   1.00783

 Molecular mass:    91.06065 amu.
 Principal axes and moments of inertia in atomic units:
                           1         2         3
     Eigenvalues --   783.894251650.019292149.63817
           X            1.00000   0.00188   0.00150
           Y           -0.00189   1.00000   0.00121
           Z           -0.00150  -0.00122   1.00000
 This molecule is an asymmetric top.
 Rotational symmetry number  1.
 Warning -- assumption of classical behavior for rotation
           may cause significant error
 Rotational temperatures (Kelvin)      0.11049     0.05249     0.04029
 Rotational constants (GHZ):           2.30228     1.09377     0.83956
 Zero-point vibrational energy     351380.0 (Joules/Mol)
                                   83.98184 (Kcal/Mol)
 Warning -- explicit consideration of  20 degrees of freedom as
           vibrations may cause significant error
 Vibrational temperatures:     22.86    49.51    88.18    93.15   121.95
          (Kelvin)            151.48   153.34   183.90   316.94   330.14
                              347.82   359.97   372.24   406.58   432.29
                              480.51   509.92   549.89   600.49   794.79
                             1055.85  1207.78  1342.35  1457.49  1769.96
                             2323.61  2339.17  2355.27  2373.54  2420.03
                             2450.48  3573.94  4475.11  4547.16  4973.34
                             5561.45  5562.82  5569.13  5661.18  5708.81
                             5710.66  5717.53

 Zero-point correction=                           0.133834 (Hartree/Particle)
 Thermal correction to Energy=                    0.148143
 Thermal correction to Enthalpy=                  0.149087
 Thermal correction to Gibbs Free Energy=         0.091496
 Sum of electronic and zero-point Energies=           -382.387570
 Sum of electronic and thermal Energies=              -382.373261
 Sum of electronic and thermal Enthalpies=            -382.372316
 Sum of electronic and thermal Free Energies=         -382.429908

                     E (Thermal)             CV                S
                      KCal/Mol        Cal/Mol-Kelvin    Cal/Mol-Kelvin
 Total                   92.961             43.794            121.211
 Electronic               0.000              0.000              0.000
 Translational            0.889              2.981             39.439
 Rotational               0.889              2.981             29.410
 Vibrational             91.184             37.832             52.362
 Vibration     1          0.593              1.986              7.091
 Vibration     2          0.594              1.983              5.557
 Vibration     3          0.597              1.973              4.415
 Vibration     4          0.597              1.971              4.307
 Vibration     5          0.601              1.960              3.778
 Vibration     6          0.605              1.945              3.354
 Vibration     7          0.605              1.944              3.330
 Vibration     8          0.611              1.925              2.979
 Vibration     9          0.647              1.810              1.957
 Vibration    10          0.652              1.796              1.883
 Vibration    11          0.658              1.776              1.790
 Vibration    12          0.663              1.762              1.729
 Vibration    13          0.668              1.748              1.670
 Vibration    14          0.682              1.706              1.518
 Vibration    15          0.693              1.673              1.414
 Vibration    16          0.715              1.608              1.241
 Vibration    17          0.730              1.566              1.147
 Vibration    18          0.752              1.508              1.030
 Vibration    19          0.780              1.433              0.901
 Vibration    20          0.908              1.134              0.539

                           ! Non-Optimized Parameters !
 Normal termination of Gaussian 16 at Wed Apr 26 17:25:09 2023.
