 Gaussian 16, Revision A.03,
 Gaussian 16:  ES64L-G16RevA.03 25-Dec-2016

 -----------------------------
 # wB97XD/aug-cc-pVDZ opt freq
 -----------------------------

 ----
 blah
 ----
 Symbolic Z-matrix:
 Charge =  1 Multiplicity = 1

 SCF Done:  E(RwB97XD) =  -153.160983063     A.U. after   10 cycles
 SCF Done:  E(RwB97XD) =  -153.164674160     A.U. after   10 cycles
 SCF Done:  E(RwB97XD) =  -153.165301652     A.U. after   10 cycles
 SCF Done:  E(RwB97XD) =  -153.167090093     A.U. after   11 cycles
 SCF Done:  E(RwB97XD) =  -153.168473103     A.U. after   10 cycles
 SCF Done:  E(RwB97XD) =  -153.168931188     A.U. after   10 cycles
 SCF Done:  E(RwB97XD) =  -153.169367148     A.U. after    9 cycles
 SCF Done:  E(RwB97XD) =  -153.169622125     A.U. after   10 cycles
 SCF Done:  E(RwB97XD) =  -153.169699348     A.U. after    9 cycles
 SCF Done:  E(RwB97XD) =  -153.169751237     A.U. after    9 cycles
 SCF Done:  E(RwB97XD) =  -153.169814735     A.U. after   10 cycles
 SCF Done:  E(RwB97XD) =  -153.169845095     A.U. after   10 cycles
 SCF Done:  E(RwB97XD) =  -153.169848403     A.U. after    8 cycles
 SCF Done:  E(RwB97XD) =  -153.169850939     A.U. after    8 cycles
 SCF Done:  E(RwB97XD) =  -153.169851181     A.U. after    8 cycles
 SCF Done:  E(RwB97XD) =  -153.169851447     A.U. after    7 cycles
 Optimization completed.
    -- Stationary point found.
 Normal termination of Gaussian 16 at Mon Feb 13 17:10:10 2023.

 ----------------------------------------------------------------------
 #N Geom=AllCheck Guess=TCheck SCRF=Check GenChk RwB97XD/Aug-CC-pVDZ Fr
 eq
 ----------------------------------------------------------------------

 Structure from the checkpoint file:  "/gscratch/scrubbed/gds001/Gau-19015.chk"
 ----
 blah
 ----
 Charge =  1 Multiplicity = 1

                         Standard orientation:
 ---------------------------------------------------------------------
 Center     Atomic      Atomic             Coordinates (Angstroms)
 Number     Number       Type             X           Y           Z
 ---------------------------------------------------------------------
      1          8           0       -1.194574   -0.034748   -0.051383
      2          1           0        0.000282    0.023854    0.000016
      3          1           0       -1.665053   -0.454682    0.681804
      4          8           0        1.194490   -0.034404    0.051416
      5          1           0        1.665092   -0.457986   -0.679589
      6          1           0        1.701759    0.721587    0.376176
      7          1           0       -1.701413    0.720443   -0.378675
 ---------------------------------------------------------------------

 SCF Done:  E(RwB97XD) =  -153.169851447     A.U. after    1 cycles

 The electronic state is 1-A.
 Alpha  occ. eigenvalues --  -19.56868 -19.56853  -1.43115  -1.40332  -0.93693
 Alpha  occ. eigenvalues --   -0.91426  -0.91363  -0.76748  -0.70681  -0.69633
 Alpha virt. eigenvalues --   -0.14245  -0.10670  -0.07699  -0.07414  -0.04268
 Alpha virt. eigenvalues --   -0.00846  -0.00124   0.00583   0.01126   0.03948
 Alpha virt. eigenvalues --    0.04079   0.06538   0.06576   0.08692   0.09397

 Mulliken charges:
               1
     1  O   -0.251415
     2  H    0.619909
     3  H    0.210304
     4  O   -0.251136
     5  H    0.210417
     6  H    0.231054
     7  H    0.230866
 Sum of Mulliken charges =   1.00000

 Dipole moment (field-independent basis, Debye):
    X=              0.0039    Y=              1.2316    Z=             -0.0007  Tot=              1.2316
 Quadrupole moment (field-independent basis, Debye-Ang):
   XX=              3.5996   YY=             -9.6254   ZZ=            -10.3489
   XY=             -0.0082   XZ=             -2.5418   YZ=             -0.0002

  Exact polarizability:  19.874  -0.001  13.823  -0.434  -0.000  13.587
 Approx polarizability:  17.550  -0.001  14.178  -0.525  -0.000  13.826

                      1                      2                      3
                      A                      A                      A
 Frequencies --    178.9733               248.1775               381.4691
 Red. masses --      1.0308                 1.1344                 1.1653
 Frc consts  --      0.0195                 0.0412                 0.0999
 IR Inten    --     20.6250               333.5366               245.9058

                      4                      5                      6
                      A                      A                      A
 Frequencies --    487.1656               502.3349               610.1011
 Red. masses --      1.1017                 1.0743                 4.9691
 Frc consts  --      0.1540                 0.1597                 1.0898
 IR Inten    --      0.2392                32.6222                 0.2180

                      7                      8                      9
                      A                      A                      A
 Frequencies --    840.7755              1447.5071              1505.2429
 Red. masses --      1.0458                 1.0631                 1.0624
 Frc consts  --      0.4356                 1.3124                 1.4183
 IR Inten    --   2808.2937               229.6987                97.8682

                     10                     11                     12
                      A                      A                      A
 Frequencies --   1675.2435              1745.2422              3790.7422
 Red. masses --      1.0810                 1.0943                 1.0419
 Frc consts  --      1.7874                 1.9639                 8.8215
 IR Inten    --      0.9414              1076.9390               244.0531

                     13                     14                     15
                      A                      A                      A
 Frequencies --   3799.3200              3892.7846              3893.2505
 Red. masses --      1.0448                 1.0873                 1.0874
 Frc consts  --      8.8862                 9.7079                 9.7108
 IR Inten    --      6.8549               248.2237               314.0005

 - Thermochemistry -
 -------------------
 Temperature   298.150 Kelvin.  Pressure   1.00000 Atm.
 Atom     1 has atomic number  8 and mass  15.99491

 Molecular mass:    37.02895 amu.
 Principal axes and moments of inertia in atomic units:
                           1         2         3
     Eigenvalues --     9.95216 208.46635 209.21525
           X            0.99985  -0.00007  -0.01746
           Y            0.00006   1.00000  -0.00037
           Z            0.01746   0.00037   0.99985
 This molecule is an asymmetric top.
 Rotational symmetry number  1.
 Rotational temperatures (Kelvin)      8.70303     0.41548     0.41399
 Rotational constants (GHZ):         181.34171     8.65723     8.62624
 Zero-point vibrational energy     149523.2 (Joules/Mol)
                                   35.73691 (Kcal/Mol)
 Warning -- explicit consideration of   6 degrees of freedom as
           vibrations may cause significant error
 Vibrational temperatures:    257.50   357.07   548.85   700.92   722.75
          (Kelvin)            877.80  1209.69  2082.64  2165.71  2410.30
                             2511.01  5454.03  5466.37  5600.85  5601.52

 Zero-point correction=                           0.056950 (Hartree/Particle)
 Thermal correction to Energy=                    0.061887
 Thermal correction to Enthalpy=                  0.062832
 Thermal correction to Gibbs Free Energy=         0.032156
 Sum of electronic and zero-point Energies=           -153.112901
 Sum of electronic and thermal Energies=              -153.107964
 Sum of electronic and thermal Enthalpies=            -153.107020
 Sum of electronic and thermal Free Energies=         -153.137695

                     E (Thermal)             CV                S
                      KCal/Mol        Cal/Mol-Kelvin    Cal/Mol-Kelvin
 Total                   38.835             15.459             64.562
 Electronic               0.000              0.000              0.000
 Translational            0.889              2.981             36.757
 Rotational               0.889              2.981             20.701
 Vibrational             37.057              9.498              7.104
 Vibration     1          0.629              1.868              2.339
 Vibration     2          0.662              1.766              1.743
 Vibration     3          0.751              1.510              1.033
 Vibration     4          0.843              1.279              0.691
 Vibration     5          0.858              1.245              0.652
 Vibration     6          0.969              1.010              0.433

 Optimization completed.
    -- Stationary point found.
 Normal termination of Gaussian 16 at Mon Feb 13 17:10:18 2023.
