 Gaussian 16, Revision A.03,
 Gaussian 16:  ES64L-G16RevA.03 25-Dec-2016

 -----------------------------
 # wB97XD/aug-cc-pVDZ opt freq
 -----------------------------

 ----
 blah
 ----
 Symbolic Z-matrix:
 Charge =  1 Multiplicity = 1

 SCF Done:  E(RwB97XD) =  -229.618346293     A.U. after   10 cycles
 SCF Done:  E(RwB97XD) =  -229.623879569     A.U. after   12 cycles
 SCF Done:  E(RwB97XD) =  -229.624719097     A.U. after   10 cycles
 SCF Done:  E(RwB97XD) =  -229.625772260     A.U. after   11 cycles
 SCF Done:  E(RwB97XD) =  -229.627380185     A.U. after   10 cycles
 SCF Done:  E(RwB97XD) =  -229.627341203     A.U. after   10 cycles
 SCF Done:  E(RwB97XD) =  -229.627791824     A.U. after   10 cycles
 SCF Done:  E(RwB97XD) =  -229.627992962     A.U. after    9 cycles
 SCF Done:  E(RwB97XD) =  -229.628046012     A.U. after    9 cycles
 SCF Done:  E(RwB97XD) =  -229.628077485     A.U. after    9 cycles
 SCF Done:  E(RwB97XD) =  -229.628096434     A.U. after    8 cycles
 SCF Done:  E(RwB97XD) =  -229.628096609     A.U. after    9 cycles
 SCF Done:  E(RwB97XD) =  -229.628096837     A.U. after    7 cycles
 SCF Done:  E(RwB97XD) =  -229.628097190     A.U. after    9 cycles
 SCF Done:  E(RwB97XD) =  -229.628097313     A.U. after    8 cycles
 SCF Done:  E(RwB97XD) =  -229.628097755     A.U. after    9 cycles
 SCF Done:  E(RwB97XD) =  -229.628097874     A.U. after    7 cycles
 SCF Done:  E(RwB97XD) =  -229.628097899     A.U. after    7 cycles
 SCF Done:  E(RwB97XD) =  -229.628097919     A.U. after    7 cycles
 Optimization completed.
    -- Stationary point found.
 Normal termination of Gaussian 16 at Mon Feb 13 17:15:09 2023.

 ----------------------------------------------------------------------
 #N Geom=AllCheck Guess=TCheck SCRF=Check GenChk RwB97XD/Aug-CC-pVDZ Fr
 eq
 ----------------------------------------------------------------------

 Structure from the checkpoint file:  "/gscratch/scrubbed/gds001/Gau-25331.chk"
 ----
 blah
 ----
 Charge =  1 Multiplicity = 1

                         Standard orientation:
 ---------------------------------------------------------------------
 Center     Atomic      Atomic             Coordinates (Angstroms)
 Number     Number       Type             X           Y           Z
 ---------------------------------------------------------------------
      1          8           0       -2.129299   -0.421374   -0.009878
      2          1           0       -2.744843   -0.412076   -0.750083
      3          1           0       -2.559457   -0.861634    0.729772
      4          8           0       -0.000122    0.872182   -0.044281
      5          1           0        0.879130    0.331159    0.012263
      6          1           0       -0.000138    1.649161    0.528846
      7          8           0        2.129360   -0.421451   -0.009934
      8          1           0        2.560618   -0.859968    0.730115
      9          1           0        2.744557   -0.412411   -0.750433
     10          1           0       -0.879386    0.330908    0.012262
 ---------------------------------------------------------------------

 SCF Done:  E(RwB97XD) =  -229.628097919     A.U. after    1 cycles

 The electronic state is 1-A.
 Alpha  occ. eigenvalues --  -19.54590 -19.49082 -19.49077  -1.40363  -1.33592
 Alpha  occ. eigenvalues --   -1.33186  -0.89963  -0.89665  -0.84074  -0.84029
 Alpha  occ. eigenvalues --   -0.73103  -0.69380  -0.68315  -0.62420  -0.62184
 Alpha virt. eigenvalues --   -0.11720  -0.08943  -0.07647  -0.06136  -0.04322
 Alpha virt. eigenvalues --   -0.03154  -0.02705   0.01168   0.02302   0.02766
 Alpha virt. eigenvalues --    0.03120   0.04924   0.06463   0.07273   0.07549

 Mulliken charges:
               1
     1  O   -0.352903
     2  H    0.164454
     3  H    0.185772
     4  O   -0.156253
     5  H    0.465644
     6  H    0.230007
     7  O   -0.352853
     8  H    0.185727
     9  H    0.164427
    10  H    0.465980
 Sum of Mulliken charges =   1.00000

 Dipole moment (field-independent basis, Debye):
    X=             -0.0006    Y=              0.0584    Z=              1.1208  Tot=              1.1223
 Quadrupole moment (field-independent basis, Debye-Ang):
   XX=             10.2122   YY=            -13.6294   ZZ=            -14.2536
   XY=              0.0059   XZ=              0.0031   YZ=              0.3218

  Exact polarizability:  30.046   0.001  23.336   0.001  -0.043  22.021
 Approx polarizability:  25.913   0.001  22.386   0.002  -0.406  23.142

                      1                      2                      3
                      A                      A                      A
 Frequencies --     62.6822                64.1952               124.0146
 Red. masses --      5.2591                 1.1183                 1.1180
 Frc consts  --      0.0122                 0.0027                 0.0101
 IR Inten    --     27.6584                41.0174                63.1851

                      4                      5                      6
                      A                      A                      A
 Frequencies --    142.7558               177.9994               338.6613
 Red. masses --      1.1111                 1.0732                 2.0748
 Frc consts  --      0.0133                 0.0200                 0.1402
 IR Inten    --     41.9873               402.6393                46.5191

                      7                      8                      9
                      A                      A                      A
 Frequencies --    376.1304               381.4596               400.3035
 Red. masses --      4.6441                 1.5099                 1.0745
 Frc consts  --      0.3871                 0.1295                 0.1014
 IR Inten    --    193.4807               136.0694                 7.7184

                     10                     11                     12
                      A                      A                      A
 Frequencies --    449.9491               584.1332              1081.3878
 Red. masses --      1.2203                 1.0182                 1.0465
 Frc consts  --      0.1456                 0.2047                 0.7210
 IR Inten    --      8.3580                 9.5723                58.1757

                     13                     14                     15
                      A                      A                      A
 Frequencies --   1208.6273              1595.1585              1635.9568
 Red. masses --      1.0669                 1.0635                 1.0945
 Frc consts  --      0.9182                 1.5943                 1.7259
 IR Inten    --    236.0542                 1.1580                 5.9177

                     16                     17                     18
                      A                      A                      A
 Frequencies --   1643.6551              1667.2155              2513.6105
 Red. masses --      1.0520                 1.0693                 1.1417
 Frc consts  --      1.6745                 1.7512                 4.2503
 IR Inten    --     15.2993                42.0875              4072.2789

                     19                     20                     21
                      A                      A                      A
 Frequencies --   2670.2878              3855.5166              3855.5697
 Red. masses --      1.0446                 1.0469                 1.0445
 Frc consts  --      4.3884                 9.1686                 9.1481
 IR Inten    --   1077.2889               100.1129               118.9452

                     22                     23                     24
                      A                      A                      A
 Frequencies --   3863.7309              3958.5741              3959.0766
 Red. masses --      1.0642                 1.0850                 1.0851
 Frc consts  --      9.3601                10.0177                10.0206
 IR Inten    --    137.5814                 4.4708               387.6636

 - Thermochemistry -
 -------------------
 Temperature   298.150 Kelvin.  Pressure   1.00000 Atm.
 Atom     1 has atomic number  8 and mass  15.99491

 Molecular mass:    55.03952 amu.
 Principal axes and moments of inertia in atomic units:
                           1         2         3
     Eigenvalues --    89.86913 633.91437 705.80162
           X            1.00000   0.00002   0.00001
           Y           -0.00002   0.99993   0.01182
           Z           -0.00001  -0.01182   0.99993
 This molecule is an asymmetric top.
 Rotational symmetry number  1.
 Rotational temperatures (Kelvin)      0.96378     0.13663     0.12272
 Rotational constants (GHZ):          20.08188     2.84698     2.55701
 Zero-point vibrational energy     218980.3 (Joules/Mol)
                                   52.33755 (Kcal/Mol)
 Warning -- explicit consideration of  11 degrees of freedom as
           vibrations may cause significant error
 Vibrational temperatures:     90.19    92.36   178.43   205.39   256.10
          (Kelvin)            487.26   541.17   548.84   575.95   647.38
                              840.44  1555.88  1738.95  2295.08  2353.78
                             2364.85  2398.75  3616.52  3841.95  5547.23
                             5547.30  5559.05  5695.51  5696.23

 Zero-point correction=                           0.083405 (Hartree/Particle)
 Thermal correction to Energy=                    0.091625
 Thermal correction to Enthalpy=                  0.092569
 Thermal correction to Gibbs Free Energy=         0.051868
 Sum of electronic and zero-point Energies=           -229.544693
 Sum of electronic and thermal Energies=              -229.536473
 Sum of electronic and thermal Enthalpies=            -229.535529
 Sum of electronic and thermal Free Energies=         -229.576230

                     E (Thermal)             CV                S
                      KCal/Mol        Cal/Mol-Kelvin    Cal/Mol-Kelvin
 Total                   57.495             24.823             85.662
 Electronic               0.000              0.000              0.000
 Translational            0.889              2.981             37.938
 Rotational               0.889              2.981             25.200
 Vibrational             55.718             18.861             22.523
 Vibration     1          0.597              1.972              4.371
 Vibration     2          0.597              1.971              4.324
 Vibration     3          0.610              1.929              3.037
 Vibration     4          0.616              1.910              2.767
 Vibration     5          0.628              1.869              2.349
 Vibration     6          0.719              1.598              1.218
 Vibration     7          0.747              1.521              1.055
 Vibration     8          0.751              1.510              1.033
 Vibration     9          0.766              1.469              0.962
 Vibration    10          0.809              1.361              0.796
 Vibration    11          0.941              1.066              0.478

                           ! Non-Optimized Parameters !
 Normal termination of Gaussian 16 at Mon Feb 13 17:15:28 2023.
