 Gaussian 16, Revision A.03,
 Gaussian 16:  ES64L-G16RevA.03 25-Dec-2016

 -----------------------------
 # wB97XD/aug-cc-pVDZ opt freq
 -----------------------------

 ----
 blah
 ----
 Symbolic Z-matrix:
 Charge =  1 Multiplicity = 1

 SCF Done:  E(RwB97XD) =  -306.068193974     A.U. after   10 cycles
 SCF Done:  E(RwB97XD) =  -306.075074886     A.U. after   10 cycles
 SCF Done:  E(RwB97XD) =  -306.076772964     A.U. after   10 cycles
 SCF Done:  E(RwB97XD) =  -306.078389407     A.U. after   11 cycles
 SCF Done:  E(RwB97XD) =  -306.078761693     A.U. after   11 cycles
 SCF Done:  E(RwB97XD) =  -306.078230898     A.U. after   10 cycles
 SCF Done:  E(RwB97XD) =  -306.079415622     A.U. after   10 cycles
 SCF Done:  E(RwB97XD) =  -306.079212333     A.U. after   10 cycles
 SCF Done:  E(RwB97XD) =  -306.079623925     A.U. after   10 cycles
 SCF Done:  E(RwB97XD) =  -306.079642332     A.U. after    9 cycles
 SCF Done:  E(RwB97XD) =  -306.079709467     A.U. after    9 cycles
 SCF Done:  E(RwB97XD) =  -306.079731470     A.U. after    9 cycles
 SCF Done:  E(RwB97XD) =  -306.079735568     A.U. after    8 cycles
 SCF Done:  E(RwB97XD) =  -306.079736572     A.U. after    8 cycles
 SCF Done:  E(RwB97XD) =  -306.079736891     A.U. after    7 cycles
 SCF Done:  E(RwB97XD) =  -306.079737356     A.U. after    8 cycles
 SCF Done:  E(RwB97XD) =  -306.079737496     A.U. after    7 cycles
 SCF Done:  E(RwB97XD) =  -306.079737163     A.U. after    7 cycles
 SCF Done:  E(RwB97XD) =  -306.079737302     A.U. after    6 cycles
 Optimization completed.
    -- Stationary point found.
 Normal termination of Gaussian 16 at Mon Feb 13 17:15:59 2023.

 ----------------------------------------------------------------------
 #N Geom=AllCheck Guess=TCheck SCRF=Check GenChk RwB97XD/Aug-CC-pVDZ Fr
 eq
 ----------------------------------------------------------------------

 Structure from the checkpoint file:  "/gscratch/scrubbed/gds001/Gau-13911.chk"
 ----
 blah
 ----
 Charge =  1 Multiplicity = 1

                         Standard orientation:
 ---------------------------------------------------------------------
 Center     Atomic      Atomic             Coordinates (Angstroms)
 Number     Number       Type             X           Y           Z
 ---------------------------------------------------------------------
      1          8           0        1.634455   -1.877833   -0.128482
      2          1           0        2.041321   -2.414882    0.558556
      3          1           0        2.181256   -1.965777   -0.914886
      4          8           0       -0.000123   -0.000063    0.448241
      5          1           0       -0.951083   -0.216586    0.188650
      6          1           0        0.287898    0.931745    0.188775
      7          8           0       -2.443606   -0.476312   -0.128473
      8          1           0       -2.793476   -0.904703   -0.915389
      9          1           0       -3.111740   -0.561511    0.558783
     10          1           0        0.662945   -0.715302    0.188731
     11          8           0        0.809245    2.354231   -0.128390
     12          1           0        0.612861    2.871560   -0.915128
     13          1           0        1.070255    2.975272    0.558746
 ---------------------------------------------------------------------

 SCF Done:  E(RwB97XD) =  -306.079737302     A.U. after    1 cycles

 The electronic state is 1-A.
 Alpha  occ. eigenvalues --  -19.50423 -19.46513 -19.46513 -19.46512  -1.36592
 Alpha  occ. eigenvalues --   -1.30931  -1.30930  -1.30417  -0.86305  -0.86303
 Alpha  occ. eigenvalues --   -0.81373  -0.81319  -0.81318  -0.71053  -0.66924
 Alpha  occ. eigenvalues --   -0.66923  -0.64865  -0.59696  -0.59692  -0.59691
 Alpha virt. eigenvalues --   -0.10080  -0.07699  -0.07698  -0.05537  -0.03523
 Alpha virt. eigenvalues --   -0.03521  -0.02465  -0.01375  -0.01374   0.02873
 Alpha virt. eigenvalues --    0.03976   0.03977   0.04346   0.07732   0.08185

 Mulliken charges:
               1
     1  O   -0.351811
     2  H    0.158540
     3  H    0.170473
     4  O   -0.128246
     5  H    0.398926
     6  H    0.398865
     7  O   -0.351832
     8  H    0.170498
     9  H    0.158513
    10  H    0.398889
    11  O   -0.351822
    12  H    0.170486
    13  H    0.158520
 Sum of Mulliken charges =   1.00000

 Dipole moment (field-independent basis, Debye):
    X=              0.0001    Y=             -0.0004    Z=             -0.8530  Tot=              0.8530
 Quadrupole moment (field-independent basis, Debye-Ang):
   XX=             -0.7307   YY=             -0.7339   ZZ=            -19.5673
   XY=              0.0037   XZ=             -0.0002   YZ=             -0.0047

  Exact polarizability:  36.639   0.004  36.629   0.001  -0.002  30.509
 Approx polarizability:  32.684   0.001  32.684  -0.001  -0.003  32.302

                      1                      2                      3
                      A                      A                      A
 Frequencies --     62.3352                62.4915                64.5981
 Red. masses --      4.9574                 4.9970                 2.3152
 Frc consts  --      0.0113                 0.0115                 0.0057
 IR Inten    --      0.3295                 0.3474                 0.6728

                      4                      5                      6
                      A                      A                      A
 Frequencies --    107.5062               108.6322               113.7728
 Red. masses --      1.1045                 1.1110                 1.0800
 Frc consts  --      0.0075                 0.0077                 0.0082
 IR Inten    --     18.9444                19.6817                18.7623

                      7                      8                      9
                      A                      A                      A
 Frequencies --    203.6231               238.3922               240.7534
 Red. masses --      1.1700                 1.1519                 1.1513
 Frc consts  --      0.0286                 0.0386                 0.0393
 IR Inten    --     46.7261               308.4065               306.7761

                     10                     11                     12
                      A                      A                      A
 Frequencies --    281.7941               348.0522               349.0141
 Red. masses --      5.3002                 2.9077                 2.9656
 Frc consts  --      0.2480                 0.2075                 0.2128
 IR Inten    --      0.0037                92.8747                94.8187

                     13                     14                     15
                      A                      A                      A
 Frequencies --    374.5736               375.6359               411.6043
 Red. masses --      1.2816                 1.2705                 1.2164
 Frc consts  --      0.1059                 0.1056                 0.1214
 IR Inten    --     61.4808                57.7494                72.6587

                     16                     17                     18
                      A                      A                      A
 Frequencies --    710.5916               971.4591               971.7018
 Red. masses --      1.0175                 1.0420                 1.0420
 Frc consts  --      0.3027                 0.5794                 0.5797
 IR Inten    --      0.0741                57.9920                57.9181

                     19                     20                     21
                      A                      A                      A
 Frequencies --   1159.7074              1625.1884              1625.3188
 Red. masses --      1.0769                 1.0828                 1.0827
 Frc consts  --      0.8533                 1.6851                 1.6852
 IR Inten    --    264.7544                60.2834                59.9785

                     22                     23                     24
                      A                      A                      A
 Frequencies --   1640.8573              1685.6091              1685.8612
 Red. masses --      1.0886                 1.0518                 1.0516
 Frc consts  --      1.7269                 1.7608                 1.7610
 IR Inten    --      1.2543                15.5900                15.4716

                     25                     26                     27
                      A                      A                      A
 Frequencies --   2965.7523              2967.4647              3069.6244
 Red. masses --      1.1124                 1.1123                 1.0182
 Frc consts  --      5.7649                 5.7709                 5.6527
 IR Inten    --   2930.6568              2926.6843               148.2101

                     28                     29                     30
                      A                      A                      A
 Frequencies --   3861.7680              3862.5118              3863.8113
 Red. masses --      1.0448                 1.0448                 1.0448
 Frc consts  --      9.1800                 9.1835                 9.1903
 IR Inten    --     75.2484                67.2168                16.9769

                     31                     32                     33
                      A                      A                      A
 Frequencies --   3963.7881              3964.4145              3965.3611
 Red. masses --      1.0840                 1.0840                 1.0840
 Frc consts  --     10.0342                10.0376                10.0428
 IR Inten    --     76.8915               143.7618               273.6133

 - Thermochemistry -
 -------------------
 Temperature   298.150 Kelvin.  Pressure   1.00000 Atm.
 Atom     1 has atomic number  8 and mass  15.99491

 Molecular mass:    73.05008 amu.
 Principal axes and moments of inertia in atomic units:
                           1         2         3
     Eigenvalues --   663.68585 663.817251273.32658
           X            0.99936   0.03575   0.00000
           Y           -0.03575   0.99936  -0.00001
           Z           -0.00000   0.00001   1.00000
 This molecule is an asymmetric top.
 Rotational symmetry number  1.
 Warning -- assumption of classical behavior for rotation
           may cause significant error
 Rotational temperatures (Kelvin)      0.13050     0.13048     0.06802
 Rotational constants (GHZ):           2.71927     2.71873     1.41734
 Zero-point vibrational energy     286527.0 (Joules/Mol)
                                   68.48159 (Kcal/Mol)
 Warning -- explicit consideration of  15 degrees of freedom as
           vibrations may cause significant error
 Vibrational temperatures:     89.69    89.91    92.94   154.68   156.30
          (Kelvin)            163.69   292.97   342.99   346.39   405.44
                              500.77   502.15   538.93   540.46   592.21
                             1022.38  1397.71  1398.06  1668.56  2338.28
                             2338.47  2360.83  2425.22  2425.58  4267.06
                             4269.52  4416.50  5556.22  5557.29  5559.16
                             5703.01  5703.91  5705.27

 Zero-point correction=                           0.109132 (Hartree/Particle)
 Thermal correction to Energy=                    0.120452
 Thermal correction to Enthalpy=                  0.121396
 Thermal correction to Gibbs Free Energy=         0.072608
 Sum of electronic and zero-point Energies=           -305.970605
 Sum of electronic and thermal Energies=              -305.959285
 Sum of electronic and thermal Enthalpies=            -305.958341
 Sum of electronic and thermal Free Energies=         -306.007129

                     E (Thermal)             CV                S
                      KCal/Mol        Cal/Mol-Kelvin    Cal/Mol-Kelvin
 Total                   75.585             34.530            102.684
 Electronic               0.000              0.000              0.000
 Translational            0.889              2.981             38.782
 Rotational               0.889              2.981             27.819
 Vibrational             73.808             28.569             36.083
 Vibration     1          0.597              1.972              4.382
 Vibration     2          0.597              1.972              4.377
 Vibration     3          0.597              1.971              4.312
 Vibration     4          0.606              1.943              3.313
 Vibration     5          0.606              1.942              3.293
 Vibration     6          0.607              1.938              3.204
 Vibration     7          0.639              1.835              2.100
 Vibration     8          0.656              1.782              1.815
 Vibration     9          0.658              1.778              1.797
 Vibration    10          0.681              1.707              1.523
 Vibration    11          0.726              1.579              1.175
 Vibration    12          0.726              1.577              1.171
 Vibration    13          0.746              1.524              1.061
 Vibration    14          0.746              1.522              1.057
 Vibration    15          0.776              1.445              0.921

                           ! Non-Optimized Parameters !
 Normal termination of Gaussian 16 at Mon Feb 13 17:16:37 2023.
