 Gaussian 16, Revision A.03,
 Gaussian 16:  ES64L-G16RevA.03 25-Dec-2016

 --------------------------------------
 # wB97XD/aug-cc-pVDZ opt=z-matrix freq
 --------------------------------------

 ----
 blah
 ----
 Symbolic Z-matrix:
 Charge =  1 Multiplicity = 1

 SCF Done:  E(RwB97XD) =  -76.6922044627     A.U. after   10 cycles
 SCF Done:  E(RwB97XD) =  -76.6938537116     A.U. after    8 cycles
 SCF Done:  E(RwB97XD) =  -76.6940411440     A.U. after    8 cycles
 SCF Done:  E(RwB97XD) =  -76.6940606003     A.U. after    7 cycles
 SCF Done:  E(RwB97XD) =  -76.6940622620     A.U. after    7 cycles
 Optimization completed.
    -- Stationary point found.
 Normal termination of Gaussian 16 at Thu Oct 27 15:57:40 2022.

 ----------------------------------------------------------------------
 #N Geom=AllCheck Guess=TCheck SCRF=Check GenChk RwB97XD/Aug-CC-pVDZ Fr
 eq
 ----------------------------------------------------------------------

 Structure from the checkpoint file:  "/gscratch/scrubbed/gds001/Gau-24086.chk"
 ----
 blah
 ----
 Charge =  1 Multiplicity = 1

                         Standard orientation:
 ---------------------------------------------------------------------
 Center     Atomic      Atomic             Coordinates (Angstroms)
 Number     Number       Type             X           Y           Z
 ---------------------------------------------------------------------
      1          8           0       -0.000000    0.074965   -0.000000
      2          1           0       -0.938800   -0.199835    0.000000
      3          1           0        0.469400   -0.199941    0.812989
      4          1           0        0.469400   -0.199941   -0.812989
 ---------------------------------------------------------------------

 SCF Done:  E(RwB97XD) =  -76.6940622620     A.U. after    1 cycles

 The electronic state is 1-A'.
 Alpha  occ. eigenvalues --  -19.70768  -1.55853  -1.03092  -1.03090  -0.83559
 Alpha virt. eigenvalues --   -0.19708  -0.11451  -0.11451  -0.04674  -0.03497
 Alpha virt. eigenvalues --   -0.02950  -0.02949   0.01880   0.01880   0.07398
 Alpha virt. eigenvalues --    0.09382   0.09383   0.22350   0.27353   0.28135

 Mulliken charges:
               1
     1  O    0.026558
     2  H    0.324491
     3  H    0.324476
     4  H    0.324476
 Sum of Mulliken charges =   1.00000

 Dipole moment (field-independent basis, Debye):
    X=             -0.0000    Y=             -1.4336    Z=             -0.0000  Tot=              1.4336
 Quadrupole moment (field-independent basis, Debye-Ang):
   XX=             -2.4724   YY=             -6.1839   ZZ=             -2.4728
   XY=             -0.0003   XZ=             -0.0000   YZ=              0.0000

  Exact polarizability:   6.928  -0.001   5.574   0.000   0.000   6.927
 Approx polarizability:   7.021  -0.000   5.337  -0.000   0.000   7.021

                      1                      2                      3
                     A'                     A'                     A"
 Frequencies --    811.0375              1658.2954              1658.3198
 Red. masses --      1.1700                 1.0664                 1.0664
 Frc consts  --      0.4535                 1.7278                 1.7278
 IR Inten    --    444.3831               101.4500               101.4268

                      4                      5                      6
                     A'                     A"                     A'
 Frequencies --   3614.3611              3727.3769              3727.6498
 Red. masses --      1.0183                 1.0899                 1.0898
 Frc consts  --      7.8380                 8.9212                 8.9224
 IR Inten    --     32.0685               464.4232               464.6336

 - Thermochemistry -
 -------------------
 Temperature   298.150 Kelvin.  Pressure   1.00000 Atm.
 Atom     1 has atomic number  8 and mass  15.99491

 Molecular mass:    19.01839 amu.
 Principal axes and moments of inertia in atomic units:
                           1         2         3
     Eigenvalues --     5.44361   5.44402   9.51549
           X            1.00000   0.00000   0.00009
           Y           -0.00009  -0.00000   1.00000
           Z           -0.00000   1.00000  -0.00000
 This molecule is an asymmetric top.
 Rotational symmetry number  1.
 Rotational temperatures (Kelvin)     15.91113    15.90991     9.10241
 Rotational constants (GHZ):         331.53411   331.50871   189.66346
 Zero-point vibrational energy      90898.5 (Joules/Mol)
                                   21.72526 (Kcal/Mol)
 Vibrational temperatures:   1166.90  2385.92  2385.95  5200.26  5362.86
          (Kelvin)           5363.26

 Zero-point correction=                           0.034621 (Hartree/Particle)
 Thermal correction to Energy=                    0.037534
 Thermal correction to Enthalpy=                  0.038478
 Thermal correction to Gibbs Free Energy=         0.015487
 Sum of electronic and zero-point Energies=            -76.659441
 Sum of electronic and thermal Energies=               -76.656528
 Sum of electronic and thermal Enthalpies=             -76.655584
 Sum of electronic and thermal Free Energies=          -76.678575

                     E (Thermal)             CV                S
                      KCal/Mol        Cal/Mol-Kelvin    Cal/Mol-Kelvin
 Total                   23.553              6.680             48.390
 Electronic               0.000              0.000              0.000
 Translational            0.889              2.981             34.771
 Rotational               0.889              2.981             13.409
 Vibrational             21.776              0.718              0.210

 Optimization completed.
    -- Stationary point found.
 Normal termination of Gaussian 16 at Thu Oct 27 15:57:48 2022.
