 Gaussian 16, Revision A.03,
 Gaussian 16:  ES64L-G16RevA.03 25-Dec-2016

 -----------------------------
 # wB97XD/aug-cc-pVDZ opt freq
 -----------------------------

 ----
 blah
 ----
 Symbolic Z-matrix:
 Charge =  0 Multiplicity = 1

 SCF Done:  E(RwB97XD) =  -498.879704871     A.U. after   14 cycles
 SCF Done:  E(RwB97XD) =  -498.883988726     A.U. after   13 cycles
 SCF Done:  E(RwB97XD) =  -498.884411011     A.U. after   13 cycles
 SCF Done:  E(RwB97XD) =  -498.884531120     A.U. after   13 cycles
 SCF Done:  E(RwB97XD) =  -498.884597617     A.U. after   13 cycles
 SCF Done:  E(RwB97XD) =  -498.884679907     A.U. after   13 cycles
 SCF Done:  E(RwB97XD) =  -498.884741209     A.U. after   15 cycles
 SCF Done:  E(RwB97XD) =  -498.884747922     A.U. after   10 cycles
 SCF Done:  E(RwB97XD) =  -498.884750858     A.U. after   11 cycles
 SCF Done:  E(RwB97XD) =  -498.884752537     A.U. after   10 cycles
 SCF Done:  E(RwB97XD) =  -498.884752421     A.U. after   11 cycles
 SCF Done:  E(RwB97XD) =  -498.884752448     A.U. after    8 cycles
 SCF Done:  E(RwB97XD) =  -498.884752395     A.U. after    8 cycles
 Optimization completed.
    -- Stationary point found.
 Normal termination of Gaussian 16 at Tue Nov  1 11:36:07 2022.

 ----------------------------------------------------------------------
 #N Geom=AllCheck Guess=TCheck SCRF=Check GenChk RwB97XD/Aug-CC-pVDZ Fr
 eq
 ----------------------------------------------------------------------

 Structure from the checkpoint file:  "/gscratch/scrubbed/gds001/Gau-24205.chk"
 ----
 blah
 ----
 Charge =  0 Multiplicity = 1

                         Standard orientation:
 ---------------------------------------------------------------------
 Center     Atomic      Atomic             Coordinates (Angstroms)
 Number     Number       Type             X           Y           Z
 ---------------------------------------------------------------------
      1          7           0        2.485282    0.186602   -1.382864
      2          6           0        3.374198    0.011027   -0.399518
      3          6           0        3.013480   -0.238087    0.921782
      4          6           0        1.658516   -0.310900    1.236686
      5          6           0        0.714374   -0.142454    0.227661
      6          6           0        1.192436    0.108009   -1.064314
      7          6           0       -0.765877   -0.258051    0.497690
      8          6           0       -1.393488   -1.576024   -0.000978
      9          6           0       -2.849159   -1.200862   -0.365710
     10          6           0       -2.932533    0.303409   -0.076439
     11          7           0       -1.555334    0.762296   -0.183672
     12          6           0       -1.348978    2.103131    0.319690
     13          1           0        4.426653    0.076671   -0.683155
     14          1           0        3.778652   -0.366234    1.686472
     15          1           0        1.336435   -0.495727    2.263213
     16          1           0        0.479185    0.263551   -1.875874
     17          1           0       -0.919061   -0.183957    1.598123
     18          1           0       -0.846786   -1.934571   -0.880944
     19          1           0       -1.328751   -2.355682    0.767032
     20          1           0       -3.044801   -1.401866   -1.425257
     21          1           0       -3.585553   -1.762917    0.220240
     22          1           0       -3.576422    0.850764   -0.776954
     23          1           0       -3.325977    0.476631    0.948936
     24          1           0       -1.603727    2.189157    1.397604
     25          1           0       -1.976422    2.808037   -0.240224
     26          1           0       -0.300880    2.398672    0.187248
 ---------------------------------------------------------------------

 SCF Done:  E(RwB97XD) =  -498.884752395     A.U. after    1 cycles

 The electronic state is 1-A.
 Alpha  occ. eigenvalues --  -14.44706 -14.44563 -10.33277 -10.33167 -10.32855
 Alpha  occ. eigenvalues --  -10.31950 -10.31871 -10.31442 -10.31282 -10.30999
 Alpha  occ. eigenvalues --  -10.29798 -10.29689  -1.05285  -1.04235  -0.91718
 Alpha  occ. eigenvalues --   -0.88830  -0.87421  -0.81746  -0.77529  -0.73073
 Alpha  occ. eigenvalues --   -0.72184  -0.68065  -0.66604  -0.61510  -0.58951
 Alpha  occ. eigenvalues --   -0.57875  -0.56954  -0.53573  -0.52760  -0.52161
 Alpha  occ. eigenvalues --   -0.50437  -0.48946  -0.48598  -0.47237  -0.46769
 Alpha  occ. eigenvalues --   -0.44765  -0.43840  -0.42754  -0.42351  -0.40782
 Alpha  occ. eigenvalues --   -0.36485  -0.33906  -0.33195  -0.30476
 Alpha virt. eigenvalues --    0.03262   0.03643   0.03974   0.04498   0.04502
 Alpha virt. eigenvalues --    0.04868   0.05571   0.05817   0.06571   0.06670
 Alpha virt. eigenvalues --    0.07113   0.07593   0.08212   0.08737   0.09348

 Mulliken charges:
               1
     1  N   -0.341483
     2  C    0.092023
     3  C    0.612655
     4  C    1.040114
     5  C    0.910305
     6  C    0.125180
     7  C    1.024636
     8  C    0.935596
     9  C    0.715362
    10  C    1.199342
    11  N   -0.480821
    12  C    0.834598
    13  H   -0.513377
    14  H   -0.580189
    15  H   -0.864009
    16  H   -0.777156
    17  H   -0.802016
    18  H   -0.395208
    19  H   -0.427356
    20  H   -0.339508
    21  H   -0.289889
    22  H   -0.554132
    23  H   -0.401747
    24  H   -0.155522
    25  H   -0.244292
    26  H   -0.323109
 Sum of Mulliken charges =  -0.00000

 Dipole moment (field-independent basis, Debye):
    X=             -1.4802    Y=             -0.5054    Z=              2.4980  Tot=              2.9473
 Quadrupole moment (field-independent basis, Debye-Ang):
   XX=            -69.2963   YY=            -73.2522   ZZ=            -74.8702
   XY=             -0.7679   XZ=              6.3500   YZ=             -0.1483

  Exact polarizability: 164.971   0.754 107.520   1.175  -3.097 121.677
 Approx polarizability: 162.309   0.570 118.248   1.142  -6.653 152.949

                      1                      2                      3
                      A                      A                      A
 Frequencies --     31.6102                62.1175               100.6970
 Red. masses --      3.7144                 2.2196                 3.4499
 Frc consts  --      0.0022                 0.0050                 0.0206
 IR Inten    --      0.9200                 0.0421                 0.0250

                      4                      5                      6
                      A                      A                      A
 Frequencies --    146.2312               192.1736               246.3049
 Red. masses --      2.0474                 2.9823                 1.2579
 Frc consts  --      0.0258                 0.0649                 0.0450
 IR Inten    --      0.1871                 1.0979                 0.5792

                      7                      8                      9
                      A                      A                      A
 Frequencies --    266.1956               308.6194               359.5758
 Red. masses --      2.1892                 3.8673                 2.8180
 Frc consts  --      0.0914                 0.2170                 0.2147
 IR Inten    --      0.1999                 0.4633                 3.8602

                     10                     11                     12
                      A                      A                      A
 Frequencies --    412.1444               422.9241               538.7026
 Red. masses --      3.0426                 3.2936                 4.0989
 Frc consts  --      0.3045                 0.3471                 0.7008
 IR Inten    --      2.6631                 1.1345                 0.7723

                     13                     14                     15
                      A                      A                      A
 Frequencies --    584.2306               629.7513               647.9294
 Red. masses --      2.9948                 5.6993                 3.5158
 Frc consts  --      0.6023                 1.3317                 0.8696
 IR Inten    --      0.7799                 1.9939                 4.4382

                     16                     17                     18
                      A                      A                      A
 Frequencies --    678.8253               738.2596               778.0250
 Red. masses --      5.2332                 1.8352                 1.5426
 Frc consts  --      1.4208                 0.5893                 0.5502
 IR Inten    --      1.1628                34.2646                 4.1602

                     19                     20                     21
                      A                      A                      A
 Frequencies --    827.1211               841.4719               929.5597
 Red. masses --      1.8271                 2.2363                 1.6105
 Frc consts  --      0.7365                 0.9330                 0.8199
 IR Inten    --     16.7498                 4.7491                13.7002

                     22                     23                     24
                      A                      A                      A
 Frequencies --    938.1524               956.2599               964.3241
 Red. masses --      3.5980                 2.2643                 1.3382
 Frc consts  --      1.8658                 1.2199                 0.7332
 IR Inten    --      3.4008                 2.8507                 0.2297

                     25                     26                     27
                      A                      A                      A
 Frequencies --    977.6340              1007.7329              1015.5215
 Red. masses --      1.5535                 1.8684                 1.4707
 Frc consts  --      0.8748                 1.1179                 0.8936
 IR Inten    --      0.5409                 4.1208                 0.5457

                     28                     29                     30
                      A                      A                      A
 Frequencies --   1044.6118              1053.4206              1078.0218
 Red. masses --      4.0963                 2.3068                 2.1156
 Frc consts  --      2.6336                 1.5082                 1.4486
 IR Inten    --     10.0586                 1.8936                 5.9693

                     31                     32                     33
                      A                      A                      A
 Frequencies --   1083.7598              1119.3083              1139.0227
 Red. masses --      1.7667                 2.2540                 1.2946
 Frc consts  --      1.2226                 1.6638                 0.9896
 IR Inten    --     11.2735                 7.6073                 5.1437

                     34                     35                     36
                      A                      A                      A
 Frequencies --   1144.2529              1200.8411              1212.9280
 Red. masses --      1.3608                 1.4986                 1.5755
 Frc consts  --      1.0497                 1.2732                 1.3657
 IR Inten    --     10.1507                14.3752                 8.3030

                     37                     38                     39
                      A                      A                      A
 Frequencies --   1229.1370              1243.9071              1253.2402
 Red. masses --      1.4039                 1.6978                 1.4839
 Frc consts  --      1.2496                 1.5478                 1.3731
 IR Inten    --      2.1929                 6.8075                 5.2049

                     40                     41                     42
                      A                      A                      A
 Frequencies --   1269.0124              1290.5401              1304.0464
 Red. masses --      2.2288                 1.4862                 3.7624
 Frc consts  --      2.1148                 1.4584                 3.7697
 IR Inten    --     24.6869                 1.6523                 4.0915

                     43                     44                     45
                      A                      A                      A
 Frequencies --   1305.6931              1322.0417              1351.0059
 Red. masses --      1.7951                 1.3580                 1.4490
 Frc consts  --      1.8031                 1.3984                 1.5583
 IR Inten    --     19.3826                 2.3902                 9.5526

                     46                     47                     48
                      A                      A                      A
 Frequencies --   1355.8273              1382.4096              1403.2469
 Red. masses --      1.3972                 1.6517                 1.7002
 Frc consts  --      1.5132                 1.8598                 1.9725
 IR Inten    --      4.4377                13.3422                11.2193

                     49                     50                     51
                      A                      A                      A
 Frequencies --   1444.8980              1473.4277              1477.1254
 Red. masses --      1.2362                 2.0981                 1.0687
 Frc consts  --      1.5206                 2.6837                 1.3738
 IR Inten    --      2.3456                33.3438                13.3740

                     52                     53                     54
                      A                      A                      A
 Frequencies --   1481.5244              1486.1888              1501.5926
 Red. masses --      1.0764                 1.0870                 1.0936
 Frc consts  --      1.3919                 1.4145                 1.4528
 IR Inten    --      2.3528                 5.3362                 9.0873

                     55                     56                     57
                      A                      A                      A
 Frequencies --   1516.9933              1522.8651              1655.8044
 Red. masses --      1.3264                 1.8691                 5.9938
 Frc consts  --      1.7984                 2.5538                 9.6820
 IR Inten    --      7.0197                 4.7112                16.0511

                     58                     59                     60
                      A                      A                      A
 Frequencies --   1677.9417              2899.0402              2922.1299
 Red. masses --      6.6173                 1.0811                 1.0723
 Frc consts  --     10.9770                 5.3534                 5.3945
 IR Inten    --      3.6622                44.4197                71.1969

                     61                     62                     63
                      A                      A                      A
 Frequencies --   2935.5829              3083.3044              3092.0085
 Red. masses --      1.0597                 1.0606                 1.0733
 Frc consts  --      5.3804                 5.9407                 6.0461
 IR Inten    --    130.5063                20.7368                34.3361

                     64                     65                     66
                      A                      A                      A
 Frequencies --   3093.2395              3103.7881              3129.3608
 Red. masses --      1.0671                 1.0844                 1.1068
 Frc consts  --      6.0158                 6.1551                 6.3861
 IR Inten    --     35.8156                45.3451                 0.6369

                     67                     68                     69
                      A                      A                      A
 Frequencies --   3140.8150              3149.1022              3180.9585
 Red. masses --      1.1041                 1.1065                 1.0887
 Frc consts  --      6.4174                 6.4649                 6.4905
 IR Inten    --     22.6924                38.8085                12.8950

                     70                     71                     72
                      A                      A                      A
 Frequencies --   3189.1505              3190.6213              3220.6868
 Red. masses --      1.0908                 1.0923                 1.0979
 Frc consts  --      6.5364                 6.5515                 6.7099
 IR Inten    --     14.8346                 6.9434                16.8613

 - Thermochemistry -
 -------------------
 Temperature   298.150 Kelvin.  Pressure   1.00000 Atm.
 Atom     1 has atomic number  7 and mass  14.00307

 Molecular mass:   162.11570 amu.
 Principal axes and moments of inertia in atomic units:
                           1         2         3
     Eigenvalues --   881.408863092.968243264.98084
           X            0.99997  -0.00105   0.00724
           Y            0.00082   0.99948   0.03216
           Z           -0.00727  -0.03216   0.99946
 This molecule is an asymmetric top.
 Rotational symmetry number  1.
 Warning -- assumption of classical behavior for rotation
           may cause significant error
 Rotational temperatures (Kelvin)      0.09827     0.02800     0.02653
 Rotational constants (GHZ):           2.04756     0.58350     0.55276
 Zero-point vibrational energy     597872.8 (Joules/Mol)
                                  142.89502 (Kcal/Mol)
 Warning -- explicit consideration of  13 degrees of freedom as
           vibrations may cause significant error
 Vibrational temperatures:     45.48    89.37   144.88   210.39   276.49
          (Kelvin)            354.38   383.00   444.03   517.35   592.98
                              608.49   775.07   840.58   906.07   932.23
                              976.68  1062.19  1119.40  1190.04  1210.69
                             1337.43  1349.79  1375.84  1387.45  1406.60
                             1449.90  1461.11  1502.96  1515.64  1551.03
                             1559.29  1610.44  1638.80  1646.32  1727.74
                             1745.13  1768.45  1789.70  1803.13  1825.83
                             1856.80  1876.23  1878.60  1902.12  1943.80
                             1950.73  1988.98  2018.96  2078.89  2119.93
                             2125.25  2131.58  2138.29  2160.46  2182.62
                             2191.06  2382.33  2414.18  4171.07  4204.29
                             4223.65  4436.19  4448.71  4450.48  4465.66
                             4502.45  4518.93  4530.86  4576.69  4588.48
                             4590.59  4633.85

 Zero-point correction=                           0.227718 (Hartree/Particle)
 Thermal correction to Energy=                    0.238263
 Thermal correction to Enthalpy=                  0.239207
 Thermal correction to Gibbs Free Energy=         0.190461
 Sum of electronic and zero-point Energies=           -498.657035
 Sum of electronic and thermal Energies=              -498.646489
 Sum of electronic and thermal Enthalpies=            -498.645545
 Sum of electronic and thermal Free Energies=         -498.694291

                     E (Thermal)             CV                S
                      KCal/Mol        Cal/Mol-Kelvin    Cal/Mol-Kelvin
 Total                  149.512             40.595            102.595
 Electronic               0.000              0.000              0.000
 Translational            0.889              2.981             41.158
 Rotational               0.889              2.981             30.566
 Vibrational            147.735             34.633             30.871
 Vibration     1          0.594              1.983              5.726
 Vibration     2          0.597              1.972              4.389
 Vibration     3          0.604              1.949              3.441
 Vibration     4          0.617              1.907              2.721
 Vibration     5          0.634              1.851              2.207
 Vibration     6          0.661              1.769              1.757
 Vibration     7          0.672              1.735              1.621
 Vibration     8          0.698              1.657              1.370
 Vibration     9          0.734              1.556              1.124
 Vibration    10          0.776              1.444              0.919
 Vibration    11          0.785              1.420              0.882
 Vibration    12          0.894              1.164              0.568
 Vibration    13          0.941              1.065              0.478

 Optimization completed.
    -- Stationary point found.
 Normal termination of Gaussian 16 at Tue Nov  1 11:52:45 2022.
