 Gaussian 16, Revision A.03,
 Gaussian 16:  ES64L-G16RevA.03 25-Dec-2016

 -----------------------------
 # wB97XD/aug-cc-pVDZ opt freq
 -----------------------------

 ----
 blah
 ----
 Symbolic Z-matrix:
 Charge =  0 Multiplicity = 1

 SCF Done:  E(RwB97XD) =  -498.859294283     A.U. after   15 cycles
 SCF Done:  E(RwB97XD) =  -498.883896935     A.U. after   15 cycles
 SCF Done:  E(RwB97XD) =  -498.885248563     A.U. after   13 cycles
 SCF Done:  E(RwB97XD) =  -498.885383231     A.U. after   13 cycles
 SCF Done:  E(RwB97XD) =  -498.885483384     A.U. after   13 cycles
 SCF Done:  E(RwB97XD) =  -498.885522036     A.U. after   13 cycles
 SCF Done:  E(RwB97XD) =  -498.885572955     A.U. after   13 cycles
 SCF Done:  E(RwB97XD) =  -498.885602473     A.U. after   11 cycles
 SCF Done:  E(RwB97XD) =  -498.885603945     A.U. after   11 cycles
 SCF Done:  E(RwB97XD) =  -498.885609349     A.U. after   10 cycles
 SCF Done:  E(RwB97XD) =  -498.885616465     A.U. after   12 cycles
 SCF Done:  E(RwB97XD) =  -498.885617348     A.U. after   11 cycles
 SCF Done:  E(RwB97XD) =  -498.885617604     A.U. after   10 cycles
 SCF Done:  E(RwB97XD) =  -498.885617631     A.U. after    8 cycles
 Optimization completed.
    -- Stationary point found.
 Normal termination of Gaussian 16 at Tue Nov  1 11:40:18 2022.

 ----------------------------------------------------------------------
 #N Geom=AllCheck Guess=TCheck SCRF=Check GenChk RwB97XD/Aug-CC-pVDZ Fr
 eq
 ----------------------------------------------------------------------

 Structure from the checkpoint file:  "/gscratch/scrubbed/gds001/Gau-12959.chk"
 ----
 blah
 ----
 Charge =  0 Multiplicity = 1

                         Standard orientation:
 ---------------------------------------------------------------------
 Center     Atomic      Atomic             Coordinates (Angstroms)
 Number     Number       Type             X           Y           Z
 ---------------------------------------------------------------------
      1          6           0        2.556595    0.097704   -1.316504
      2          6           0        3.411468   -0.027125   -0.220141
      3          7           0        2.979449   -0.191826    1.030915
      4          6           0        1.657146   -0.239008    1.219743
      5          6           0        0.710586   -0.137562    0.199982
      6          6           0        1.185226    0.039499   -1.101249
      7          6           0       -0.765243   -0.241894    0.492247
      8          6           0       -1.402695   -1.573377    0.045531
      9          6           0       -2.858988   -1.204876   -0.323457
     10          6           0       -2.934819    0.308619   -0.085187
     11          7           0       -1.556487    0.758621   -0.218329
     12          6           0       -1.342838    2.114166    0.242339
     13          1           0       -0.907024   -0.128679    1.590100
     14          1           0       -0.863665   -1.967515   -0.824061
     15          1           0       -1.336330   -2.324683    0.840984
     16          1           0       -3.062329   -1.441189   -1.374360
     17          1           0       -3.594023   -1.743548    0.285655
     18          1           0       -3.582209    0.834196   -0.799150
     19          1           0       -3.319924    0.518154    0.936287
     20          1           0       -1.593185    2.235114    1.317557
     21          1           0       -1.969326    2.803966   -0.337267
     22          1           0       -0.293698    2.400492    0.098402
     23          1           0        0.476603    0.142887   -1.923443
     24          1           0        2.965474    0.238960   -2.316467
     25          1           0        4.494336    0.011732   -0.356420
     26          1           0        1.325946   -0.364335    2.254251
 ---------------------------------------------------------------------

 SCF Done:  E(RwB97XD) =  -498.885617631     A.U. after    1 cycles

 The electronic state is 1-A.
 Alpha  occ. eigenvalues --  -14.44780 -14.44660 -10.33260 -10.33248 -10.33126
 Alpha  occ. eigenvalues --  -10.32022 -10.31591 -10.31510 -10.31252 -10.30977
 Alpha  occ. eigenvalues --  -10.29847 -10.29769  -1.05311  -1.04381  -0.91616
 Alpha  occ. eigenvalues --   -0.88917  -0.87466  -0.81836  -0.77587  -0.73054
 Alpha  occ. eigenvalues --   -0.72345  -0.68155  -0.66223  -0.61659  -0.59140
 Alpha  occ. eigenvalues --   -0.58000  -0.56935  -0.53487  -0.53113  -0.52277
 Alpha  occ. eigenvalues --   -0.50347  -0.48975  -0.48588  -0.47354  -0.46102
 Alpha  occ. eigenvalues --   -0.44753  -0.44145  -0.43216  -0.42420  -0.40663
 Alpha  occ. eigenvalues --   -0.36363  -0.33943  -0.33320  -0.30723
 Alpha virt. eigenvalues --    0.03295   0.03496   0.03967   0.04393   0.04517
 Alpha virt. eigenvalues --    0.05066   0.05540   0.05906   0.06386   0.06759
 Alpha virt. eigenvalues --    0.06877   0.07748   0.08205   0.08617   0.09293

 Mulliken charges:
               1
     1  C    0.424438
     2  C    0.107125
     3  N   -0.365633
     4  C    0.214748
     5  C    1.203097
     6  C    1.057710
     7  C    1.016446
     8  C    0.847958
     9  C    0.728873
    10  C    1.148328
    11  N   -0.488490
    12  C    0.846241
    13  H   -0.800629
    14  H   -0.405219
    15  H   -0.415384
    16  H   -0.340499
    17  H   -0.283774
    18  H   -0.557414
    19  H   -0.400264
    20  H   -0.150919
    21  H   -0.247479
    22  H   -0.338299
    23  H   -0.952287
    24  H   -0.596835
    25  H   -0.513235
    26  H   -0.738602
 Sum of Mulliken charges =  -0.00000

 Dipole moment (field-independent basis, Debye):
    X=             -2.2258    Y=              0.1030    Z=             -1.2712  Tot=              2.5653
 Quadrupole moment (field-independent basis, Debye-Ang):
   XX=            -74.7772   YY=            -73.2939   ZZ=            -72.1743
   XY=              1.3930   XZ=             -7.4511   YZ=             -0.3047

  Exact polarizability: 163.353   1.579 107.064  -2.941  -2.105 123.166
 Approx polarizability: 161.271   1.313 117.586  -1.841  -4.678 154.447

                      1                      2                      3
                      A                      A                      A
 Frequencies --     34.1599                61.2439               100.9514
 Red. masses --      3.9257                 2.1914                 3.3261
 Frc consts  --      0.0027                 0.0048                 0.0200
 IR Inten    --      1.5599                 0.4733                 0.3994

                      4                      5                      6
                      A                      A                      A
 Frequencies --    146.5285               195.3374               246.8600
 Red. masses --      2.0166                 2.9022                 1.2736
 Frc consts  --      0.0255                 0.0652                 0.0457
 IR Inten    --      1.2205                 0.3329                 0.5481

                      7                      8                      9
                      A                      A                      A
 Frequencies --    265.0654               307.0908               362.1668
 Red. masses --      2.1672                 4.1717                 2.7945
 Frc consts  --      0.0897                 0.2318                 0.2160
 IR Inten    --      0.6250                 0.1015                 5.4309

                     10                     11                     12
                      A                      A                      A
 Frequencies --    410.8172               418.7838               542.1459
 Red. masses --      2.9548                 3.3391                 4.0947
 Frc consts  --      0.2938                 0.3450                 0.7091
 IR Inten    --      1.8177                 1.2821                 1.2864

                     13                     14                     15
                      A                      A                      A
 Frequencies --    586.2991               628.1913               646.8768
 Red. masses --      3.0030                 7.2049                 3.0597
 Frc consts  --      0.6082                 1.6752                 0.7543
 IR Inten    --      0.6799                 2.9048                 2.8664

                     16                     17                     18
                      A                      A                      A
 Frequencies --    686.4368               739.0913               778.5144
 Red. masses --      5.4260                 1.8643                 1.5283
 Frc consts  --      1.5064                 0.6000                 0.5457
 IR Inten    --      1.0772                32.5970                 2.2733

                     19                     20                     21
                      A                      A                      A
 Frequencies --    830.0779               843.5889               930.3931
 Red. masses --      1.8217                 2.1836                 1.5968
 Frc consts  --      0.7396                 0.9156                 0.8144
 IR Inten    --     16.0923                 2.1662                10.0260

                     22                     23                     24
                      A                      A                      A
 Frequencies --    936.3613               952.6474               961.6586
 Red. masses --      3.7719                 1.8823                 1.6052
 Frc consts  --      1.9485                 1.0065                 0.8746
 IR Inten    --      6.7616                 5.2249                 1.5253

                     25                     26                     27
                      A                      A                      A
 Frequencies --    982.8868              1008.2012              1018.2064
 Red. masses --      1.5060                 1.9213                 1.4158
 Frc consts  --      0.8572                 1.1507                 0.8648
 IR Inten    --      0.3646                 4.1585                 0.4651

                     28                     29                     30
                      A                      A                      A
 Frequencies --   1045.7898              1054.4200              1077.5013
 Red. masses --      4.0068                 2.3460                 2.2167
 Frc consts  --      2.5819                 1.5368                 1.5163
 IR Inten    --     11.0757                 1.8394                 3.4549

                     31                     32                     33
                      A                      A                      A
 Frequencies --   1081.8298              1118.4497              1138.1692
 Red. masses --      1.6816                 2.2291                 1.3387
 Frc consts  --      1.1596                 1.6429                 1.0218
 IR Inten    --     13.8657                 6.8664                 7.2816

                     34                     35                     36
                      A                      A                      A
 Frequencies --   1139.1825              1200.2866              1210.3326
 Red. masses --      1.2989                 1.5403                 1.5538
 Frc consts  --      0.9932                 1.3074                 1.3411
 IR Inten    --      6.5429                13.5745                 4.3582

                     37                     38                     39
                      A                      A                      A
 Frequencies --   1231.5522              1247.5748              1255.2504
 Red. masses --      1.5910                 1.4306                 1.5761
 Frc consts  --      1.4217                 1.3119                 1.4632
 IR Inten    --     11.4155                 4.6907                 4.8542

                     40                     41                     42
                      A                      A                      A
 Frequencies --   1269.0495              1290.4890              1304.1161
 Red. masses --      2.2318                 1.4475                 1.8142
 Frc consts  --      2.1177                 1.4203                 1.8179
 IR Inten    --     25.3019                 0.9584                15.3847

                     43                     44                     45
                      A                      A                      A
 Frequencies --   1310.8204              1321.4820              1347.3708
 Red. masses --      4.4014                 1.3721                 1.4832
 Frc consts  --      4.4558                 1.4117                 1.5864
 IR Inten    --     10.9157                 1.9080                14.7890

                     46                     47                     48
                      A                      A                      A
 Frequencies --   1356.3591              1382.1755              1401.5625
 Red. masses --      1.4444                 1.6266                 1.5256
 Frc consts  --      1.5656                 1.8308                 1.7657
 IR Inten    --      5.9345                12.2003                16.8298

                     49                     50                     51
                      A                      A                      A
 Frequencies --   1445.0112              1475.0667              1477.2886
 Red. masses --      1.2256                 1.8056                 1.0857
 Frc consts  --      1.5078                 2.3147                 1.3961
 IR Inten    --      4.8479                19.3119                 5.5079

                     52                     53                     54
                      A                      A                      A
 Frequencies --   1482.2602              1487.3753              1501.4848
 Red. masses --      1.1029                 1.1427                 1.0911
 Frc consts  --      1.4277                 1.4894                 1.4493
 IR Inten    --      7.1015                 1.4029                 9.5266

                     55                     56                     57
                      A                      A                      A
 Frequencies --   1519.0784              1524.2997              1655.3329
 Red. masses --      1.1203                 2.5364                 6.1606
 Frc consts  --      1.5231                 3.4723                 9.9459
 IR Inten    --      0.2460                13.0299                14.7391

                     58                     59                     60
                      A                      A                      A
 Frequencies --   1677.1371              2908.4588              2924.9115
 Red. masses --      6.5687                 1.0811                 1.0725
 Frc consts  --     10.8859                 5.3882                 5.4062
 IR Inten    --      4.7040                36.2412                76.8913

                     61                     62                     63
                      A                      A                      A
 Frequencies --   2939.5458              3083.2256              3091.5170
 Red. masses --      1.0592                 1.0611                 1.0739
 Frc consts  --      5.3923                 5.9434                 6.0473
 IR Inten    --    121.5058                18.9427                32.4654

                     64                     65                     66
                      A                      A                      A
 Frequencies --   3092.9733              3102.9916              3129.5135
 Red. masses --      1.0685                 1.0827                 1.1066
 Frc consts  --      6.0224                 6.1424                 6.3854
 IR Inten    --     38.4439                47.2845                 0.4819

                     67                     68                     69
                      A                      A                      A
 Frequencies --   3140.2732              3149.2911              3162.7003
 Red. masses --      1.1041                 1.1063                 1.0910
 Frc consts  --      6.4149                 6.4648                 6.4297
 IR Inten    --     22.7748                37.9183                23.9580

                     70                     71                     72
                      A                      A                      A
 Frequencies --   3181.2315              3205.2437              3222.7649
 Red. masses --      1.0898                 1.0901                 1.0986
 Frc consts  --      6.4983                 6.5983                 6.7228
 IR Inten    --     13.4265                 6.9165                13.7573

 - Thermochemistry -
 -------------------
 Temperature   298.150 Kelvin.  Pressure   1.00000 Atm.
 Atom     1 has atomic number  6 and mass  12.00000

 Molecular mass:   162.11570 amu.
 Principal axes and moments of inertia in atomic units:
                           1         2         3
     Eigenvalues --   875.417633111.419993283.98614
           X            0.99995   0.00247  -0.00987
           Y           -0.00220   0.99963   0.02726
           Z            0.00993  -0.02724   0.99958
 This molecule is an asymmetric top.
 Rotational symmetry number  1.
 Warning -- assumption of classical behavior for rotation
           may cause significant error
 Rotational temperatures (Kelvin)      0.09894     0.02784     0.02637
 Rotational constants (GHZ):           2.06158     0.58004     0.54956
 Zero-point vibrational energy     598033.1 (Joules/Mol)
                                  142.93334 (Kcal/Mol)
 Warning -- explicit consideration of  13 degrees of freedom as
           vibrations may cause significant error
 Vibrational temperatures:     49.15    88.12   145.25   210.82   281.05
          (Kelvin)            355.18   381.37   441.84   521.08   591.07
                              602.54   780.03   843.55   903.83   930.71
                              987.63  1063.39  1120.11  1194.30  1213.74
                             1338.63  1347.22  1370.65  1383.61  1414.15
                             1450.58  1464.97  1504.66  1517.08  1550.28
                             1556.51  1609.20  1637.57  1639.03  1726.94
                             1741.40  1771.93  1794.98  1806.03  1825.88
                             1856.73  1876.33  1885.98  1901.32  1938.57
                             1951.50  1988.64  2016.54  2079.05  2122.29
                             2125.49  2132.64  2140.00  2160.30  2185.61
                             2193.13  2381.65  2413.03  4184.62  4208.30
                             4229.35  4436.07  4448.00  4450.10  4464.51
                             4502.67  4518.15  4531.13  4550.42  4577.08
                             4611.63  4636.84

 Zero-point correction=                           0.227779 (Hartree/Particle)
 Thermal correction to Energy=                    0.238312
 Thermal correction to Enthalpy=                  0.239257
 Thermal correction to Gibbs Free Energy=         0.190588
 Sum of electronic and zero-point Energies=           -498.657839
 Sum of electronic and thermal Energies=              -498.647305
 Sum of electronic and thermal Enthalpies=            -498.646361
 Sum of electronic and thermal Free Energies=         -498.695030

                     E (Thermal)             CV                S
                      KCal/Mol        Cal/Mol-Kelvin    Cal/Mol-Kelvin
 Total                  149.543             40.568            102.432
 Electronic               0.000              0.000              0.000
 Translational            0.889              2.981             41.158
 Rotational               0.889              2.981             30.571
 Vibrational            147.766             34.607             30.704
 Vibration     1          0.594              1.983              5.572
 Vibration     2          0.597              1.973              4.417
 Vibration     3          0.604              1.948              3.436
 Vibration     4          0.617              1.906              2.717
 Vibration     5          0.636              1.846              2.177
 Vibration     6          0.661              1.768              1.753
 Vibration     7          0.671              1.737              1.628
 Vibration     8          0.697              1.660              1.378
 Vibration     9          0.736              1.550              1.113
 Vibration    10          0.775              1.447              0.924
 Vibration    11          0.782              1.429              0.896
 Vibration    12          0.897              1.157              0.561
 Vibration    13          0.943              1.061              0.474

 Optimization completed.
    -- Stationary point found.
 Normal termination of Gaussian 16 at Tue Nov  1 11:56:55 2022.
