 Gaussian 16, Revision A.03,
 Gaussian 16:  ES64L-G16RevA.03 25-Dec-2016

 ----------------------------------------------------------------
 # wB97XD/aug-cc-pVDZ opt=(TS,CalcAll,MaxStep=5,NoEigenTest) freq
 ----------------------------------------------------------------

 ----
 blah
 ----
 Symbolic Z-matrix:
 Charge =  1 Multiplicity = 1

 SCF Done:  E(RwB97XD) =  -881.457165450     A.U. after   16 cycles
 SCF Done:  E(RwB97XD) =  -881.457270188     A.U. after   14 cycles
 SCF Done:  E(RwB97XD) =  -881.457473517     A.U. after   14 cycles
 SCF Done:  E(RwB97XD) =  -881.457647331     A.U. after   14 cycles
 SCF Done:  E(RwB97XD) =  -881.457833213     A.U. after   13 cycles
 SCF Done:  E(RwB97XD) =  -881.457931755     A.U. after   13 cycles
 SCF Done:  E(RwB97XD) =  -881.457964332     A.U. after   13 cycles
 SCF Done:  E(RwB97XD) =  -881.457967062     A.U. after   12 cycles
 SCF Done:  E(RwB97XD) =  -881.457969910     A.U. after   12 cycles
 SCF Done:  E(RwB97XD) =  -881.457970335     A.U. after   11 cycles
 SCF Done:  E(RwB97XD) =  -881.457971192     A.U. after   11 cycles
 SCF Done:  E(RwB97XD) =  -881.457971302     A.U. after    8 cycles
 Optimization completed.
    -- Stationary point found.
 ******    1 imaginary frequencies (negative Signs) ******
    1 imaginary frequencies ignored.
 Normal termination of Gaussian 16 at Thu Dec 29 06:22:23 2022.

 ----------------------------------------------------------------------
 #N Geom=AllCheck Guess=TCheck SCRF=Check GenChk RwB97XD/Aug-CC-pVDZ Fr
 eq
 ----------------------------------------------------------------------

 Structure from the checkpoint file:  "/gscratch/scrubbed/gds001/Gau-22875.chk"
 ----
 blah
 ----
 Charge =  1 Multiplicity = 1

                         Standard orientation:
 ---------------------------------------------------------------------
 Center     Atomic      Atomic             Coordinates (Angstroms)
 Number     Number       Type             X           Y           Z
 ---------------------------------------------------------------------
      1          7           0        1.147301    1.985894    0.697585
      2          6           0        1.693476    2.533922   -0.395075
      3          6           0        1.099174    2.453131   -1.650678
      4          6           0       -0.111511    1.773647   -1.770171
      5          6           0       -0.699921    1.207761   -0.640095
      6          6           0       -0.020853    1.352196    0.572505
      7          6           0       -2.015073    0.471470   -0.729533
      8          6           0       -3.121372    0.932187    0.232288
      9          6           0       -4.009065   -0.318810    0.439076
     10          6           0       -3.302105   -1.433981   -0.342902
     11          7           0       -1.896559   -0.982360   -0.435969
     12          6           0       -1.106578   -1.724754   -1.423647
     13          1           0        2.641042    3.054817   -0.254055
     14          1           0        1.574106    2.915713   -2.513849
     15          1           0       -0.598788    1.689690   -2.742369
     16          1           0       -0.427864    0.927537    1.490796
     17          1           0       -2.381249    0.560110   -1.766768
     18          1           0       -3.668075    1.780785   -0.190472
     19          1           0       -2.688750    1.263756    1.182490
     20          1           0       -5.028776   -0.170824    0.070779
     21          1           0       -4.077424   -0.571145    1.502553
     22          1           0       -3.715087   -1.538302   -1.358307
     23          1           0       -3.343249   -2.416083    0.142810
     24          1           0       -1.525303   -1.599698   -2.433684
     25          1           0       -1.120969   -2.789105   -1.163245
     26          1           0       -0.068243   -1.375178   -1.405826
     27          8           0        2.377520    0.855240    2.875494
     28          8           0       -0.856982   -1.460679    1.788455
     29          8           0        1.545209   -1.373993    1.828444
     30          1           0        2.364659    1.230173    3.758509
     31          1           0       -1.235044   -2.235940    2.210795
     32          1           0        1.871911   -1.249907    0.896682
     33          1           0        2.002357    1.513953    2.249078
     34          1           0        1.866643   -0.587169    2.353911
     35          1           0        0.402348   -1.439617    1.826933
     36          1           0       -1.344624   -1.233659    0.772232
     37          8           0        2.249070   -0.968867   -0.680767
     38          1           0        2.387580   -0.044152   -0.906927
     39          1           0        3.024218   -1.448037   -1.038467
     40          8           0        4.456127   -2.237375   -1.652083
     41          1           0        4.506652   -2.802352   -2.427456
     42          1           0        5.222158   -2.455326   -1.114402
 ---------------------------------------------------------------------

 SCF Done:  E(RwB97XD) =  -881.457971302     A.U. after    1 cycles

 The electronic state is 1-A.
 Alpha  occ. eigenvalues --  -19.41408 -19.40810 -19.39791 -19.38814 -19.38321
 Alpha  occ. eigenvalues --  -14.61084 -14.58551 -10.46579 -10.46218 -10.46209
 Alpha  occ. eigenvalues --  -10.44836 -10.44588 -10.44392 -10.44096 -10.43501
 Alpha  occ. eigenvalues --  -10.41570 -10.41226  -1.27739  -1.25352  -1.23767
 Alpha  occ. eigenvalues --   -1.22838  -1.22160  -1.19060  -1.17985  -1.04783
 Alpha  occ. eigenvalues --   -1.01690  -1.00278  -0.94802  -0.90411  -0.86431
 Alpha  occ. eigenvalues --   -0.85121  -0.81569  -0.80366  -0.77285  -0.76794
 Alpha  occ. eigenvalues --   -0.76413  -0.75585  -0.75246  -0.73819  -0.72626
 Alpha  occ. eigenvalues --   -0.71754  -0.70442  -0.69422  -0.66890  -0.65665
 Alpha  occ. eigenvalues --   -0.65214  -0.64587  -0.62899  -0.62632  -0.61842
 Alpha  occ. eigenvalues --   -0.61606  -0.60325  -0.59635  -0.58828  -0.58481
 Alpha  occ. eigenvalues --   -0.57829  -0.56605  -0.56360  -0.55289  -0.54753
 Alpha  occ. eigenvalues --   -0.53835  -0.53446  -0.52995  -0.52679  -0.51944
 Alpha  occ. eigenvalues --   -0.49522  -0.48215  -0.47243  -0.46415
 Alpha virt. eigenvalues --   -0.09465  -0.08274  -0.06414  -0.05387  -0.04867
 Alpha virt. eigenvalues --   -0.04466  -0.03537  -0.03057  -0.02766  -0.02347
 Alpha virt. eigenvalues --   -0.02083  -0.01311  -0.01115  -0.00985  -0.00596

 Mulliken charges:
               1
     1  N   -0.641201
     2  C    0.331525
     3  C    0.652951
     4  C    1.201433
     5  C    0.572059
     6  C    1.035054
     7  C    1.283381
     8  C    1.055563
     9  C    0.840558
    10  C    1.319566
    11  N   -2.151218
    12  C    1.384123
    13  H   -0.635482
    14  H   -0.619625
    15  H   -0.936123
    16  H   -1.202219
    17  H   -0.833204
    18  H   -0.513712
    19  H   -0.279970
    20  H   -0.272385
    21  H   -0.285542
    22  H   -0.497926
    23  H   -0.534947
    24  H   -0.165684
    25  H   -0.170790
    26  H   -0.249757
    27  O   -0.381214
    28  O   -0.570582
    29  O   -0.622935
    30  H    0.187971
    31  H    0.134008
    32  H    0.419152
    33  H    0.276870
    34  H    0.414613
    35  H    0.582844
    36  H    0.908385
    37  O   -0.598673
    38  H    0.248268
    39  H    0.342547
    40  O   -0.304262
    41  H    0.138826
    42  H    0.137755
 Sum of Mulliken charges =   1.00000

 Dipole moment (field-independent basis, Debye):
    X=              1.3858    Y=             -2.2839    Z=             -2.2966  Tot=              3.5229
 Quadrupole moment (field-independent basis, Debye-Ang):
   XX=            -51.1131   YY=            -79.0324   ZZ=            -79.1826
   XY=             -4.1983   XZ=             -7.1898   YZ=              3.4412

  Exact polarizability: 188.354  19.502 156.064   1.449  -5.644 165.462
 Approx polarizability: 190.804  18.300 168.605   3.442  -6.948 195.821

 ******    1 imaginary frequencies (negative Signs) ******

                      1                      2                      3
                      A                      A                      A
 Frequencies --   -936.0918                21.9311                29.6651
 Red. masses --      1.0797                 4.7689                 4.6498
 Frc consts  --      0.5574                 0.0014                 0.0024
 IR Inten    --   4010.5455                 1.9364                 0.4614

                      4                      5                      6
                      A                      A                      A
 Frequencies --     46.5452                51.3397                61.5598
 Red. masses --      4.6078                 3.8272                 2.5695
 Frc consts  --      0.0059                 0.0059                 0.0057
 IR Inten    --      1.6661                 0.7731                 0.2734

                      7                      8                      9
                      A                      A                      A
 Frequencies --     69.1626                74.4520                89.1461
 Red. masses --      4.3317                 3.8679                 2.1201
 Frc consts  --      0.0122                 0.0126                 0.0099
 IR Inten    --      0.8726                 0.4039                 1.4218

                     10                     11                     12
                      A                      A                      A
 Frequencies --     91.3893               100.5128               110.5515
 Red. masses --      2.0703                 2.4646                 4.6135
 Frc consts  --      0.0102                 0.0147                 0.0332
 IR Inten    --      6.0801                 2.4568                 1.7792

                     13                     14                     15
                      A                      A                      A
 Frequencies --    121.0459               131.6291               171.5015
 Red. masses --      5.7042                 3.9333                 2.2836
 Frc consts  --      0.0492                 0.0402                 0.0396
 IR Inten    --      1.3805                 0.8345                 0.6436

                     16                     17                     18
                      A                      A                      A
 Frequencies --    176.9881               188.4219               219.8540
 Red. masses --      1.1622                 4.7190                 2.9975
 Frc consts  --      0.0214                 0.0987                 0.0854
 IR Inten    --    197.7664                25.3436                 4.6537

                     19                     20                     21
                      A                      A                      A
 Frequencies --    230.4567               248.1004               252.0461
 Red. masses --      3.9777                 1.2031                 1.2876
 Frc consts  --      0.1245                 0.0436                 0.0482
 IR Inten    --     43.1218               111.4331                15.8699

                     22                     23                     24
                      A                      A                      A
 Frequencies --    266.1231               274.7046               288.4181
 Red. masses --      2.0674                 1.1811                 3.9117
 Frc consts  --      0.0863                 0.0525                 0.1917
 IR Inten    --      5.7913                38.2325                38.8064

                     25                     26                     27
                      A                      A                      A
 Frequencies --    318.5239               328.0806               343.2702
 Red. masses --      3.8516                 4.4732                 2.5407
 Frc consts  --      0.2302                 0.2837                 0.1764
 IR Inten    --      3.3498                 2.4355                27.8585

                     28                     29                     30
                      A                      A                      A
 Frequencies --    362.1980               365.1371               403.1023
 Red. masses --      1.2533                 1.3092                 2.8396
 Frc consts  --      0.0969                 0.1028                 0.2719
 IR Inten    --     66.7580               127.4601                 4.4815

                     31                     32                     33
                      A                      A                      A
 Frequencies --    424.1425               475.1395               516.6233
 Red. masses --      2.8250                 1.1052                 1.3705
 Frc consts  --      0.2994                 0.1470                 0.2155
 IR Inten    --      8.0533                47.0399                28.9775

                     34                     35                     36
                      A                      A                      A
 Frequencies --    543.2411               566.6779               586.2322
 Red. masses --      2.4913                 3.0213                 3.5492
 Frc consts  --      0.4332                 0.5716                 0.7186
 IR Inten    --     11.4123                49.5121                50.7996

                     37                     38                     39
                      A                      A                      A
 Frequencies --    603.8080               638.6850               653.0404
 Red. masses --      4.3918                 3.2467                 4.9708
 Frc consts  --      0.9434                 0.7803                 1.2490
 IR Inten    --    150.6969                 0.3070                34.1516

                     40                     41                     42
                      A                      A                      A
 Frequencies --    681.7084               748.1436               762.6965
 Red. masses --      5.5183                 2.0262                 1.1278
 Frc consts  --      1.5110                 0.6682                 0.3865
 IR Inten    --      1.5591                35.2960               107.2047

                     43                     44                     45
                      A                      A                      A
 Frequencies --    767.8014               799.2754               812.0980
 Red. masses --      1.1081                 1.2562                 1.0697
 Frc consts  --      0.3849                 0.4728                 0.4157
 IR Inten    --     89.9030                25.1076               107.9121

                     46                     47                     48
                      A                      A                      A
 Frequencies --    815.0055               835.0220               844.9362
 Red. masses --      1.0977                 1.8781                 1.9851
 Frc consts  --      0.4296                 0.7716                 0.8350
 IR Inten    --    212.1812                 5.3004                14.1330

                     49                     50                     51
                      A                      A                      A
 Frequencies --    919.5857               932.7281               942.2773
 Red. masses --      1.1606                 1.8997                 2.4731
 Frc consts  --      0.5782                 0.9737                 1.2937
 IR Inten    --     27.3273                46.2780                 3.1414

                     52                     53                     54
                      A                      A                      A
 Frequencies --    962.2407               986.0955               997.5073
 Red. masses --      2.1240                 1.3790                 1.6779
 Frc consts  --      1.1587                 0.7900                 0.9837
 IR Inten    --     35.5735                 0.5997                 5.7211

                     55                     56                     57
                      A                      A                      A
 Frequencies --   1013.9493              1020.9827              1040.9446
 Red. masses --      1.4910                 1.1338                 1.3987
 Frc consts  --      0.9031                 0.6963                 0.8930
 IR Inten    --     20.4769               189.9107                24.5091

                     58                     59                     60
                      A                      A                      A
 Frequencies --   1052.3796              1057.5200              1069.8028
 Red. masses --      4.7018                 2.2859                 1.9959
 Frc consts  --      3.0680                 1.5062                 1.3458
 IR Inten    --     20.7211                 6.6098                23.5415

                     61                     62                     63
                      A                      A                      A
 Frequencies --   1091.7886              1114.5684              1145.0976
 Red. masses --      2.1111                 2.3172                 1.2986
 Frc consts  --      1.4826                 1.6960                 1.0033
 IR Inten    --      2.5802                 7.2933                 6.7055

                     64                     65                     66
                      A                      A                      A
 Frequencies --   1154.6894              1178.0354              1220.9221
 Red. masses --      1.4374                 2.4296                 1.5853
 Frc consts  --      1.1292                 1.9866                 1.3923
 IR Inten    --     18.5078                15.7106                 5.0101

                     67                     68                     69
                      A                      A                      A
 Frequencies --   1235.1286              1238.1057              1253.3151
 Red. masses --      1.8652                 1.5857                 1.3230
 Frc consts  --      1.6765                 1.4321                 1.2244
 IR Inten    --      9.4063                 5.1929                 1.1821

                     70                     71                     72
                      A                      A                      A
 Frequencies --   1267.3307              1290.0974              1297.1186
 Red. masses --      1.5687                 1.4792                 1.3782
 Frc consts  --      1.4845                 1.4505                 1.3662
 IR Inten    --      1.9942                 7.3144                29.8101

                     73                     74                     75
                      A                      A                      A
 Frequencies --   1314.7708              1330.6431              1344.6057
 Red. masses --      3.7608                 1.3573                 1.1936
 Frc consts  --      3.8302                 1.4159                 1.2715
 IR Inten    --      0.9494               250.2217               531.4763

                     76                     77                     78
                      A                      A                      A
 Frequencies --   1373.4959              1379.5466              1384.1276
 Red. masses --      1.3638                 1.4514                 1.2589
 Frc consts  --      1.5158                 1.6275                 1.4210
 IR Inten    --     27.0737                74.3249               135.0460

                     79                     80                     81
                      A                      A                      A
 Frequencies --   1412.4698              1441.0618              1466.2782
 Red. masses --      1.5257                 1.1944                 1.1857
 Frc consts  --      1.7934                 1.4614                 1.5019
 IR Inten    --     29.6651               141.4141                39.1913

                     82                     83                     84
                      A                      A                      A
 Frequencies --   1482.3316              1488.2291              1492.0871
 Red. masses --      2.1170                 1.0803                 1.0628
 Frc consts  --      2.7407                 1.4097                 1.3941
 IR Inten    --     36.1930                 3.4488                10.0588

                     85                     86                     87
                      A                      A                      A
 Frequencies --   1497.3287              1504.3929              1508.6121
 Red. masses --      1.0528                 1.0902                 1.0977
 Frc consts  --      1.3906                 1.4537                 1.4719
 IR Inten    --     22.8646               177.7802                39.1375

                     88                     89                     90
                      A                      A                      A
 Frequencies --   1528.1457              1542.8282              1617.5372
 Red. masses --      1.6416                 1.3727                 1.0879
 Frc consts  --      2.2586                 1.9251                 1.6771
 IR Inten    --     23.2872               109.6327               127.9114

                     91                     92                     93
                      A                      A                      A
 Frequencies --   1632.8996              1656.0669              1662.4647
 Red. masses --      1.0878                 1.1624                 3.1526
 Frc consts  --      1.7088                 1.8783                 5.1337
 IR Inten    --     47.9860               131.0316                32.9754

                     94                     95                     96
                      A                      A                      A
 Frequencies --   1668.7846              1683.9628              1755.5448
 Red. masses --      1.1636                 5.6833                 1.0645
 Frc consts  --      1.9092                 9.4955                 1.9329
 IR Inten    --    164.5218                 8.4152               157.9046

                     97                     98                     99
                      A                      A                      A
 Frequencies --   1769.3537              3020.2425              3037.4585
 Red. masses --      1.0519                 1.0848                 1.0397
 Frc consts  --      1.9403                 5.8300                 5.6515
 IR Inten    --    121.8640                12.3211                14.8025

                    100                    101                    102
                      A                      A                      A
 Frequencies --   3050.2576              3101.7218              3110.3586
 Red. masses --      1.0665                 1.0626                 1.0648
 Frc consts  --      5.8463                 6.0233                 6.0695
 IR Inten    --     27.0255                12.4554                12.9436

                    103                    104                    105
                      A                      A                      A
 Frequencies --   3130.1634              3133.7284              3153.0461
 Red. masses --      1.0988                 1.0982                 1.1062
 Frc consts  --      6.3430                 6.3543                 6.4795
 IR Inten    --     12.1011                 6.5053                 0.7695

                    106                    107                    108
                      A                      A                      A
 Frequencies --   3164.2895              3167.3006              3169.5112
 Red. masses --      1.0966                 1.0923                 1.1060
 Frc consts  --      6.4692                 6.4561                 6.5460
 IR Inten    --    445.2701               661.8202                16.8125

                    109                    110                    111
                      A                      A                      A
 Frequencies --   3201.1437              3203.8336              3206.8400
 Red. masses --      1.0904                 1.0915                 1.0936
 Frc consts  --      6.5836                 6.6013                 6.6263
 IR Inten    --      3.3428                 6.4000                 3.3769

                    112                    113                    114
                      A                      A                      A
 Frequencies --   3234.2855              3270.7000              3458.3689
 Red. masses --      1.0985                 1.0550                 1.0644
 Frc consts  --      6.7701                 6.6494                 7.5007
 IR Inten    --      1.3182               789.5012              1103.1747

                    115                    116                    117
                      A                      A                      A
 Frequencies --   3565.5003              3877.3064              3905.8188
 Red. masses --      1.0613                 1.0451                 1.0681
 Frc consts  --      7.9494                 9.2573                 9.6001
 IR Inten    --    923.9696                39.0800               147.3867

                    118                    119                    120
                      A                      A                      A
 Frequencies --   3923.9536              3951.4512              3982.5806
 Red. masses --      1.0661                 1.0685                 1.0831
 Frc consts  --      9.6718                 9.8297                10.1212
 IR Inten    --     79.7357               146.4462               115.0922

 - Thermochemistry -
 -------------------
 Temperature   298.150 Kelvin.  Pressure   1.00000 Atm.
 Atom     1 has atomic number  7 and mass  14.00307

 Molecular mass:   253.17635 amu.
 Principal axes and moments of inertia in atomic units:
                           1         2         3
     Eigenvalues --  3965.847886601.742387059.35548
           X            0.99999  -0.00092  -0.00501
           Y            0.00119   0.99858   0.05329
           Z            0.00496  -0.05330   0.99857
 This molecule is an asymmetric top.
 Rotational symmetry number  1.
 Warning -- assumption of classical behavior for rotation
           may cause significant error
 Rotational temperatures (Kelvin)      0.02184     0.01312     0.01227
 Rotational constants (GHZ):           0.45507     0.27337     0.25565
    1 imaginary frequencies ignored.
 Zero-point vibrational energy     950730.8 (Joules/Mol)
                                  227.23011 (Kcal/Mol)
 Warning -- explicit consideration of  36 degrees of freedom as
           vibrations may cause significant error
 Vibrational temperatures:     31.55    42.68    66.97    73.87    88.57
          (Kelvin)             99.51   107.12   128.26   131.49   144.62
                              159.06   174.16   189.38   246.75   254.65
                              271.10   316.32   331.58   356.96   362.64
                              382.89   395.24   414.97   458.28   472.03
                              493.89   521.12   525.35   579.97   610.25
                              683.62   743.31   781.60   815.32   843.46
                              868.75   918.93   939.58   980.83  1076.41
                             1097.35  1104.69  1149.98  1168.43  1172.61
                             1201.41  1215.67  1323.08  1341.99  1355.73
                             1384.45  1418.77  1435.19  1458.85  1468.97
                             1497.69  1514.14  1521.54  1539.21  1570.84
                             1603.62  1647.54  1661.34  1694.93  1756.63
                             1777.07  1781.36  1803.24  1823.41  1856.16
                             1866.26  1891.66  1914.50  1934.59  1976.15
                             1984.86  1991.45  2032.23  2073.37  2109.65
                             2132.74  2141.23  2146.78  2154.32  2164.49
                             2170.56  2198.66  2219.79  2327.28  2349.38
                             2382.71  2391.92  2401.01  2422.85  2525.84
                             2545.71  4345.46  4370.23  4388.64  4462.69
                             4475.11  4503.61  4508.74  4536.53  4552.71
                             4557.04  4560.22  4605.73  4609.60  4613.93
                             4653.42  4705.81  4975.82  5129.96  5578.58
                             5619.60  5645.69  5685.26  5730.05

 Zero-point correction=                           0.362114 (Hartree/Particle)
 Thermal correction to Energy=                    0.385669
 Thermal correction to Enthalpy=                  0.386613
 Thermal correction to Gibbs Free Energy=         0.307933
 Sum of electronic and zero-point Energies=           -881.095857
 Sum of electronic and thermal Energies=              -881.072303
 Sum of electronic and thermal Enthalpies=            -881.071358
 Sum of electronic and thermal Free Energies=         -881.150039

                     E (Thermal)             CV                S
                      KCal/Mol        Cal/Mol-Kelvin    Cal/Mol-Kelvin
 Total                  242.011             83.947            165.597
 Electronic               0.000              0.000              0.000
 Translational            0.889              2.981             42.487
 Rotational               0.889              2.981             33.580
 Vibrational            240.233             77.985             89.530
 Vibration     1          0.593              1.985              6.451
 Vibration     2          0.593              1.984              5.852
 Vibration     3          0.595              1.979              4.959
 Vibration     4          0.596              1.977              4.765
 Vibration     5          0.597              1.973              4.407
 Vibration     6          0.598              1.969              4.177
 Vibration     7          0.599              1.966              4.032
 Vibration     8          0.602              1.957              3.679
 Vibration     9          0.602              1.955              3.630
 Vibration    10          0.604              1.949              3.444
 Vibration    11          0.606              1.941              3.259
 Vibration    12          0.609              1.932              3.084
 Vibration    13          0.612              1.922              2.922
 Vibration    14          0.626              1.878              2.419
 Vibration    15          0.628              1.871              2.360
 Vibration    16          0.633              1.856              2.243
 Vibration    17          0.647              1.811              1.960
 Vibration    18          0.652              1.794              1.875
 Vibration    19          0.662              1.766              1.744
 Vibration    20          0.664              1.759              1.716
 Vibration    21          0.672              1.735              1.621
 Vibration    22          0.677              1.720              1.566
 Vibration    23          0.685              1.695              1.483
 Vibration    24          0.705              1.638              1.318
 Vibration    25          0.711              1.619              1.270
 Vibration    26          0.722              1.589              1.197
 Vibration    27          0.736              1.550              1.113
 Vibration    28          0.738              1.544              1.100
 Vibration    29          0.769              1.463              0.951
 Vibration    30          0.786              1.418              0.878
 Vibration    31          0.832              1.305              0.723
 Vibration    32          0.872              1.213              0.618
 Vibration    33          0.898              1.154              0.558
 Vibration    34          0.923              1.103              0.511
 Vibration    35          0.943              1.061              0.474
 Vibration    36          0.962              1.024              0.443

 Optimization completed.
    -- Stationary point found.
 Normal termination of Gaussian 16 at Thu Dec 29 07:55:37 2022.
