 Gaussian 16, Revision A.03,
 Gaussian 16:  ES64L-G16RevA.03 25-Dec-2016

 ----------------------------------------------------------------
 # wB97XD/aug-cc-pVDZ opt=(TS,CalcAll,MaxStep=5,NoEigenTest) freq
 ----------------------------------------------------------------

 ----
 blah
 ----
 Symbolic Z-matrix:
 Charge =  1 Multiplicity = 1

 SCF Done:  E(RwB97XD) =  -881.455571538     A.U. after   16 cycles
 SCF Done:  E(RwB97XD) =  -881.455732935     A.U. after   12 cycles
 SCF Done:  E(RwB97XD) =  -881.455930814     A.U. after   15 cycles
 SCF Done:  E(RwB97XD) =  -881.456045172     A.U. after   12 cycles
 SCF Done:  E(RwB97XD) =  -881.456199622     A.U. after   13 cycles
 SCF Done:  E(RwB97XD) =  -881.456368099     A.U. after   14 cycles
 SCF Done:  E(RwB97XD) =  -881.456598261     A.U. after   13 cycles
 SCF Done:  E(RwB97XD) =  -881.456786044     A.U. after   13 cycles
 SCF Done:  E(RwB97XD) =  -881.456919531     A.U. after   12 cycles
 SCF Done:  E(RwB97XD) =  -881.457006430     A.U. after   15 cycles
 SCF Done:  E(RwB97XD) =  -881.457047145     A.U. after   13 cycles
 SCF Done:  E(RwB97XD) =  -881.457056195     A.U. after   12 cycles
 SCF Done:  E(RwB97XD) =  -881.457056439     A.U. after    9 cycles
 SCF Done:  E(RwB97XD) =  -881.457056440     A.U. after    8 cycles
 Optimization completed.
    -- Stationary point found.
 ******    1 imaginary frequencies (negative Signs) ******
    1 imaginary frequencies ignored.
 Normal termination of Gaussian 16 at Sun Mar 12 11:10:58 2023.

 ----------------------------------------------------------------------
 #N Geom=AllCheck Guess=TCheck SCRF=Check GenChk RwB97XD/Aug-CC-pVDZ Fr
 eq
 ----------------------------------------------------------------------

 Structure from the checkpoint file:  "/gscratch/scrubbed/gds001/Gau-17319.chk"
 ----
 blah
 ----
 Charge =  1 Multiplicity = 1

                         Standard orientation:
 ---------------------------------------------------------------------
 Center     Atomic      Atomic             Coordinates (Angstroms)
 Number     Number       Type             X           Y           Z
 ---------------------------------------------------------------------
      1          7           0       -0.423523    2.386339    0.388891
      2          6           0       -1.076513    3.343078   -0.283596
      3          6           0       -2.268080    3.080346   -0.943293
      4          6           0       -2.776851    1.782723   -0.914884
      5          6           0       -2.101932    0.782788   -0.215370
      6          6           0       -0.924397    1.148287    0.433101
      7          6           0       -2.608653   -0.637592   -0.155833
      8          6           0       -2.995100   -1.134702    1.249031
      9          6           0       -2.756828   -2.662802    1.195215
     10          6           0       -2.197147   -2.912723   -0.211258
     11          7           0       -1.606767   -1.622913   -0.598094
     12          6           0       -1.292775   -1.539994   -2.019596
     13          1           0       -0.621396    4.332566   -0.288824
     14          1           0       -2.780692    3.875584   -1.480377
     15          1           0       -3.701945    1.548180   -1.442600
     16          1           0       -0.347838    0.422862    1.006749
     17          1           0       -3.493723   -0.707037   -0.818073
     18          1           0       -4.030432   -0.868816    1.486182
     19          1           0       -2.354881   -0.665088    2.005134
     20          1           0       -3.675620   -3.233578    1.362898
     21          1           0       -2.036942   -2.966737    1.963296
     22          1           0       -3.006461   -3.184706   -0.913320
     23          1           0       -1.439504   -3.705216   -0.254221
     24          1           0       -2.193732   -1.671163   -2.645852
     25          1           0       -0.569831   -2.321869   -2.279906
     26          1           0       -0.841772   -0.566755   -2.248127
     27          8           0        1.886776    2.413023    1.330414
     28          8           0        0.755213   -1.602196    0.840055
     29          8           0        2.716167    0.201390    0.911385
     30          1           0        1.965111    2.669451    2.254173
     31          1           0        0.936090   -2.500159    1.125166
     32          1           0        3.392519    0.100050    0.192840
     33          1           0        0.847936    2.501679    0.963014
     34          1           0        2.300350    1.352610    1.138476
     35          1           0        2.025566   -0.497155    0.820765
     36          1           0       -0.080041   -1.622520    0.297539
     37          8           0        4.516359   -0.119804   -0.976179
     38          1           0        4.660749    0.502453   -1.692160
     39          1           0        5.391527   -0.496348   -0.763460
     40          8           0        6.983010   -1.181154   -0.419541
     41          1           0        7.353861   -1.975566   -0.811810
     42          1           0        7.642602   -0.853241    0.196746
 ---------------------------------------------------------------------

 SCF Done:  E(RwB97XD) =  -881.457056440     A.U. after    1 cycles

 The electronic state is 1-A.
 Alpha  occ. eigenvalues --  -19.41152 -19.39479 -19.39156 -19.38092 -19.37815
 Alpha  occ. eigenvalues --  -14.60460 -14.57192 -10.46842 -10.46691 -10.44851
 Alpha  occ. eigenvalues --  -10.44551 -10.44186 -10.43561 -10.42678 -10.42290
 Alpha  occ. eigenvalues --  -10.40307 -10.39758  -1.26923  -1.24046  -1.23630
 Alpha  occ. eigenvalues --   -1.22192  -1.21515  -1.19505  -1.16366  -1.04666
 Alpha  occ. eigenvalues --   -1.00973  -0.99359  -0.93766  -0.88458  -0.86412
 Alpha  occ. eigenvalues --   -0.85450  -0.79475  -0.78755  -0.77699  -0.77149
 Alpha  occ. eigenvalues --   -0.75699  -0.74322  -0.74181  -0.73366  -0.72341
 Alpha  occ. eigenvalues --   -0.71423  -0.69772  -0.68437  -0.65798  -0.64840
 Alpha  occ. eigenvalues --   -0.64424  -0.63360  -0.62863  -0.62189  -0.61495
 Alpha  occ. eigenvalues --   -0.60801  -0.59750  -0.58323  -0.57952  -0.57542
 Alpha  occ. eigenvalues --   -0.56021  -0.55490  -0.54932  -0.54403  -0.53534
 Alpha  occ. eigenvalues --   -0.53025  -0.52458  -0.51795  -0.51420  -0.51399
 Alpha  occ. eigenvalues --   -0.49913  -0.49734  -0.46281  -0.43663
 Alpha virt. eigenvalues --   -0.09909  -0.08089  -0.05896  -0.04762  -0.04424
 Alpha virt. eigenvalues --   -0.04292  -0.03507  -0.02844  -0.02449  -0.02220
 Alpha virt. eigenvalues --   -0.01795  -0.01330  -0.00842  -0.00740  -0.00229

 Mulliken charges:
               1
     1  N   -0.684004
     2  C    0.500564
     3  C    0.415106
     4  C    1.308637
     5  C    0.417533
     6  C    1.211658
     7  C    1.312537
     8  C    1.082212
     9  C    0.790792
    10  C    1.307856
    11  N   -1.231213
    12  C    0.939615
    13  H   -0.640296
    14  H   -0.585980
    15  H   -0.906106
    16  H   -1.363470
    17  H   -0.834085
    18  H   -0.525776
    19  H   -0.290507
    20  H   -0.278304
    21  H   -0.301536
    22  H   -0.544233
    23  H   -0.583546
    24  H   -0.181819
    25  H   -0.226803
    26  H   -0.173806
    27  O   -0.551208
    28  O   -0.474528
    29  O   -0.522655
    30  H    0.157189
    31  H    0.139423
    32  H    0.330386
    33  H    0.513108
    34  H    0.575859
    35  H    0.332504
    36  H    0.574016
    37  O   -0.344692
    38  H    0.125875
    39  H    0.237481
    40  O   -0.326916
    41  H    0.147319
    42  H    0.151810
 Sum of Mulliken charges =   1.00000

 Dipole moment (field-independent basis, Debye):
    X=              4.0536    Y=              0.6341    Z=             -0.4431  Tot=              4.1268
 Quadrupole moment (field-independent basis, Debye-Ang):
   XX=            -12.4931   YY=            -67.5786   ZZ=            -92.0264
   XY=             -9.5257   XZ=              2.6042   YZ=              0.7183

  Exact polarizability: 178.704   4.906 196.201  12.141  -6.993 146.150
 Approx polarizability: 188.075   3.410 200.557  18.207  -7.727 166.829

 ******    1 imaginary frequencies (negative Signs) ******

                      1                      2                      3
                      A                      A                      A
 Frequencies --   -638.9282                 9.1264                11.7280
 Red. masses --      1.1936                 4.6575                 5.7594
 Frc consts  --      0.2871                 0.0002                 0.0005
 IR Inten    --   3377.7190                 0.8011                 1.3329

                      4                      5                      6
                      A                      A                      A
 Frequencies --     27.8807                32.0374                43.8620
 Red. masses --      4.0935                 5.6777                 3.7188
 Frc consts  --      0.0019                 0.0034                 0.0042
 IR Inten    --      0.3927                 9.7390                 0.9742

                      7                      8                      9
                      A                      A                      A
 Frequencies --     56.4367                64.3991                72.6255
 Red. masses --      3.3829                 3.2028                 1.2325
 Frc consts  --      0.0063                 0.0078                 0.0038
 IR Inten    --      3.4184                 1.7395                97.7203

                     10                     11                     12
                      A                      A                      A
 Frequencies --     76.5791                88.6956                96.5005
 Red. masses --      2.7630                 3.0953                 1.4498
 Frc consts  --      0.0095                 0.0143                 0.0080
 IR Inten    --     30.7697                18.3270                75.4936

                     13                     14                     15
                      A                      A                      A
 Frequencies --     99.3927               108.9022               129.3968
 Red. masses --      2.7338                 4.2966                 4.2284
 Frc consts  --      0.0159                 0.0300                 0.0417
 IR Inten    --     31.3909                 6.7559                 7.1195

                     16                     17                     18
                      A                      A                      A
 Frequencies --    160.5120               164.0204               187.0552
 Red. masses --      3.0738                 1.8816                 1.5371
 Frc consts  --      0.0467                 0.0298                 0.0317
 IR Inten    --     44.4091                 9.5730                36.3565

                     19                     20                     21
                      A                      A                      A
 Frequencies --    208.7277               216.5871               223.9486
 Red. masses --      3.7980                 3.5115                 1.1830
 Frc consts  --      0.0975                 0.0971                 0.0350
 IR Inten    --     47.2447                 8.0744                54.7889

                     22                     23                     24
                      A                      A                      A
 Frequencies --    245.4095               247.1418               264.4877
 Red. masses --      1.1073                 1.1813                 2.9278
 Frc consts  --      0.0393                 0.0425                 0.1207
 IR Inten    --     34.3877                 8.0333                 2.8538

                     25                     26                     27
                      A                      A                      A
 Frequencies --    273.6124               316.0095               326.9428
 Red. masses --      3.8401                 4.1537                 5.3030
 Frc consts  --      0.1694                 0.2444                 0.3340
 IR Inten    --     42.2181                 1.6188                36.4626

                     28                     29                     30
                      A                      A                      A
 Frequencies --    398.4635               405.9319               415.7309
 Red. masses --      1.9506                 2.5103                 2.9303
 Frc consts  --      0.1825                 0.2437                 0.2984
 IR Inten    --    101.2790                12.0569                13.4644

                     31                     32                     33
                      A                      A                      A
 Frequencies --    427.6743               450.3799               465.6451
 Red. masses --      2.3526                 1.1290                 1.9587
 Frc consts  --      0.2535                 0.1349                 0.2502
 IR Inten    --     14.1072                36.2742               254.1658

                     34                     35                     36
                      A                      A                      A
 Frequencies --    548.1060               579.7685               596.8478
 Red. masses --      3.6965                 2.8264                 1.1894
 Frc consts  --      0.6543                 0.5598                 0.2496
 IR Inten    --      2.3979                 2.4112                51.3374

                     37                     38                     39
                      A                      A                      A
 Frequencies --    639.4756               650.3945               675.9211
 Red. masses --      3.0246                 2.5414                 5.2354
 Frc consts  --      0.7287                 0.6334                 1.4093
 IR Inten    --     48.5994                 0.8961                 3.6768

                     40                     41                     42
                      A                      A                      A
 Frequencies --    697.4564               717.7008               734.1977
 Red. masses --      2.4963                 1.0864                 1.9774
 Frc consts  --      0.7154                 0.3297                 0.6280
 IR Inten    --      8.3605                16.9993                69.0371

                     43                     44                     45
                      A                      A                      A
 Frequencies --    750.9953               761.3959               784.0737
 Red. masses --      1.7474                 1.0578                 1.4035
 Frc consts  --      0.5807                 0.3613                 0.5084
 IR Inten    --    458.3236                85.1517                12.0203

                     46                     47                     48
                      A                      A                      A
 Frequencies --    840.9034               848.8369               881.0446
 Red. masses --      1.5891                 2.3639                 1.0982
 Frc consts  --      0.6621                 1.0035                 0.5023
 IR Inten    --     48.1789                16.3068               166.4555

                     49                     50                     51
                      A                      A                      A
 Frequencies --    924.6496               938.0524               943.5316
 Red. masses --      1.1134                 2.2356                 1.8114
 Frc consts  --      0.5609                 1.1590                 0.9501
 IR Inten    --     44.5335                 8.2127                16.5511

                     52                     53                     54
                      A                      A                      A
 Frequencies --    957.2291               977.8896               985.7326
 Red. masses --      2.5064                 1.1186                 1.3745
 Frc consts  --      1.3531                 0.6303                 0.7869
 IR Inten    --      7.5870               356.2560                 6.0546

                     55                     56                     57
                      A                      A                      A
 Frequencies --    988.4435              1011.4827              1029.3633
 Red. masses --      1.4456                 1.8132                 1.3966
 Frc consts  --      0.8321                 1.0930                 0.8719
 IR Inten    --     34.2930                15.4096                 0.2638

                     58                     59                     60
                      A                      A                      A
 Frequencies --   1055.2166              1059.2577              1073.6771
 Red. masses --      2.5668                 4.2086                 1.8331
 Frc consts  --      1.6839                 2.7822                 1.2450
 IR Inten    --      7.8963                13.5259                22.8070

                     61                     62                     63
                      A                      A                      A
 Frequencies --   1105.5982              1119.4817              1143.3173
 Red. masses --      2.1314                 2.2825                 1.2807
 Frc consts  --      1.5350                 1.6853                 0.9863
 IR Inten    --     17.6503                16.8815                 5.3421

                     64                     65                     66
                      A                      A                      A
 Frequencies --   1155.2727              1196.2734              1218.4057
 Red. masses --      1.4223                 1.8893                 1.4759
 Frc consts  --      1.1185                 1.5930                 1.2909
 IR Inten    --     17.8217                19.7759                20.6685

                     67                     68                     69
                      A                      A                      A
 Frequencies --   1235.6280              1242.6813              1258.3212
 Red. masses --      1.4184                 1.7321                 1.8856
 Frc consts  --      1.2759                 1.5760                 1.7591
 IR Inten    --      2.8896                 6.6289                21.9351

                     70                     71                     72
                      A                      A                      A
 Frequencies --   1263.9036              1291.8778              1297.8562
 Red. masses --      1.7255                 1.5812                 1.3672
 Frc consts  --      1.6240                 1.5549                 1.3568
 IR Inten    --     12.3980                 3.1927                12.4693

                     73                     74                     75
                      A                      A                      A
 Frequencies --   1311.4966              1328.3066              1350.1696
 Red. masses --      1.9445                 1.3636                 1.5397
 Frc consts  --      1.9706                 1.4175                 1.6537
 IR Inten    --     56.4598                 2.7196                44.4195

                     76                     77                     78
                      A                      A                      A
 Frequencies --   1361.7300              1377.0314              1381.8172
 Red. masses --      1.4118                 1.4648                 1.5033
 Frc consts  --      1.5424                 1.6365                 1.6912
 IR Inten    --      7.9089                 1.5052                 4.4901

                     79                     80                     81
                      A                      A                      A
 Frequencies --   1415.4407              1449.6999              1482.1937
 Red. masses --      1.5628                 1.2074                 1.1889
 Frc consts  --      1.8447                 1.4951                 1.5388
 IR Inten    --      0.3882                 1.0006                97.8215

                     82                     83                     84
                      A                      A                      A
 Frequencies --   1484.3079              1486.7958              1489.3653
 Red. masses --      1.1360                 1.2765                 1.0975
 Frc consts  --      1.4746                 1.6625                 1.4344
 IR Inten    --     83.5129               124.7809                36.4954

                     85                     86                     87
                      A                      A                      A
 Frequencies --   1501.7421              1506.3975              1523.1920
 Red. masses --      1.0678                 1.0923                 1.2493
 Frc consts  --      1.4188                 1.4603                 1.7078
 IR Inten    --    103.6455                20.1805                93.5750

                     88                     89                     90
                      A                      A                      A
 Frequencies --   1524.1680              1541.8966              1631.5673
 Red. masses --      1.2475                 1.7328                 1.0883
 Frc consts  --      1.7075                 2.4272                 1.7068
 IR Inten    --    475.7851                71.3720                90.5542

                     91                     92                     93
                      A                      A                      A
 Frequencies --   1649.4253              1656.5194              1678.0102
 Red. masses --      1.2944                 1.2806                 2.3094
 Frc consts  --      2.0748                 2.0704                 3.8312
 IR Inten    --   1295.9037               310.3352               630.7160

                     94                     95                     96
                      A                      A                      A
 Frequencies --   1689.9183              1699.2413              1731.1882
 Red. masses --      1.3696                 2.3301                 1.1177
 Frc consts  --      2.3045                 3.9640                 1.9737
 IR Inten    --     70.2104                33.8291               375.7304

                     97                     98                     99
                      A                      A                      A
 Frequencies --   1751.2881              2970.6905              2996.8659
 Red. masses --      1.0816                 1.0837                 1.0495
 Frc consts  --      1.9545                 5.6349                 5.5536
 IR Inten    --    211.9949                70.5332                79.6069

                    100                    101                    102
                      A                      A                      A
 Frequencies --   2999.6097              3090.5385              3101.0194
 Red. masses --      1.0709                 1.0633                 1.0687
 Frc consts  --      5.6773                 5.9836                 6.0550
 IR Inten    --     99.6645                14.2901                20.0335

                    103                    104                    105
                      A                      A                      A
 Frequencies --   3108.7806              3114.4312              3143.8314
 Red. masses --      1.0861                 1.0892                 1.1049
 Frc consts  --      6.1844                 6.2248                 6.4341
 IR Inten    --     16.7379                17.9970                 3.7507

                    106                    107                    108
                      A                      A                      A
 Frequencies --   3150.7871              3162.1077              3163.4842
 Red. masses --      1.1043                 1.1046                 1.0724
 Frc consts  --      6.4594                 6.5075                 6.3230
 IR Inten    --     14.4339               143.1354              1679.3695

                    109                    110                    111
                      A                      A                      A
 Frequencies --   3206.6955              3215.8227              3221.4878
 Red. masses --      1.0916                 1.0925                 1.0926
 Frc consts  --      6.6135                 6.6564                 6.6806
 IR Inten    --      3.7034                62.3908                 1.6335

                    112                    113                    114
                      A                      A                      A
 Frequencies --   3243.0050              3312.4733              3407.8463
 Red. masses --      1.0991                 1.0674                 1.0703
 Frc consts  --      6.8108                 6.9007                 7.3232
 IR Inten    --      0.6557              1481.4141               827.8063

                    115                    116                    117
                      A                      A                      A
 Frequencies --   3615.5327              3881.5636              3909.0920
 Red. masses --      1.0607                 1.0450                 1.0658
 Frc consts  --      8.1697                 9.2766                 9.5961
 IR Inten    --    658.9509                27.1510               119.0461

                    118                    119                    120
                      A                      A                      A
 Frequencies --   3944.3907              3951.7732              3989.4668
 Red. masses --      1.0667                 1.0689                 1.0833
 Frc consts  --      9.7779                 9.8348                10.1582
 IR Inten    --     87.7162                97.0096               114.9416

 - Thermochemistry -
 -------------------
 Temperature   298.150 Kelvin.  Pressure   1.00000 Atm.
 Atom     1 has atomic number  7 and mass  14.00307

 Molecular mass:   253.17635 amu.
 Principal axes and moments of inertia in atomic units:
                           1         2         3
     Eigenvalues --  4202.331508711.61524**********
           X            0.99995   0.00979  -0.00037
           Y           -0.00979   0.99995   0.00149
           Z            0.00039  -0.00148   1.00000
 This molecule is an asymmetric top.
 Rotational symmetry number  1.
 Warning -- assumption of classical behavior for rotation
           may cause significant error
 Rotational temperatures (Kelvin)      0.02061     0.00994     0.00772
 Rotational constants (GHZ):           0.42946     0.20716     0.16096
    1 imaginary frequencies ignored.
 Zero-point vibrational energy     947444.2 (Joules/Mol)
                                  226.44461 (Kcal/Mol)
 Warning -- explicit consideration of  35 degrees of freedom as
           vibrations may cause significant error
 Vibrational temperatures:     13.13    16.87    40.11    46.09    63.11
          (Kelvin)             81.20    92.66   104.49   110.18   127.61
                              138.84   143.00   156.69   186.17   230.94
                              235.99   269.13   300.31   311.62   322.21
                              353.09   355.58   380.54   393.67   454.67
                              470.40   573.30   584.05   598.14   615.33
                              648.00   669.96   788.60   834.16   858.73
                              920.06   935.77   972.50  1003.48  1032.61
                             1056.35  1080.51  1095.48  1128.11  1209.87
                             1221.29  1267.63  1330.36  1349.65  1357.53
                             1377.24  1406.97  1418.25  1422.15  1455.30
                             1481.02  1518.22  1524.04  1544.78  1590.71
                             1610.68  1644.98  1662.18  1721.17  1753.01
                             1777.79  1787.94  1810.44  1818.48  1858.72
                             1867.33  1886.95  1911.14  1942.59  1959.23
                             1981.24  1988.13  2036.50  2085.79  2132.55
                             2135.59  2139.17  2142.86  2160.67  2167.37
                             2191.53  2192.94  2218.45  2347.46  2373.16
                             2383.36  2414.28  2431.42  2444.83  2490.79
                             2519.71  4274.16  4311.82  4315.77  4446.60
                             4461.68  4472.84  4480.97  4523.27  4533.28
                             4549.57  4551.55  4613.72  4626.85  4635.00
                             4665.96  4765.91  4903.13  5201.95  5584.70
                             5624.31  5675.10  5685.72  5739.95

 Zero-point correction=                           0.360862 (Hartree/Particle)
 Thermal correction to Energy=                    0.385280
 Thermal correction to Enthalpy=                  0.386224
 Thermal correction to Gibbs Free Energy=         0.301736
 Sum of electronic and zero-point Energies=           -881.096194
 Sum of electronic and thermal Energies=              -881.071776
 Sum of electronic and thermal Enthalpies=            -881.070832
 Sum of electronic and thermal Free Energies=         -881.155320

                     E (Thermal)             CV                S
                      KCal/Mol        Cal/Mol-Kelvin    Cal/Mol-Kelvin
 Total                  241.767             84.474            177.820
 Electronic               0.000              0.000              0.000
 Translational            0.889              2.981             42.487
 Rotational               0.889              2.981             34.372
 Vibrational            239.990             78.512            100.961
 Vibration     1          0.593              1.987              8.193
 Vibration     2          0.593              1.987              7.694
 Vibration     3          0.593              1.984              5.975
 Vibration     4          0.594              1.983              5.699
 Vibration     5          0.595              1.980              5.077
 Vibration     6          0.596              1.975              4.578
 Vibration     7          0.597              1.971              4.318
 Vibration     8          0.599              1.967              4.081
 Vibration     9          0.599              1.965              3.977
 Vibration    10          0.602              1.957              3.689
 Vibration    11          0.603              1.952              3.524
 Vibration    12          0.604              1.950              3.466
 Vibration    13          0.606              1.942              3.288
 Vibration    14          0.612              1.924              2.955
 Vibration    15          0.622              1.891              2.544
 Vibration    16          0.623              1.887              2.503
 Vibration    17          0.632              1.858              2.257
 Vibration    18          0.642              1.827              2.055
 Vibration    19          0.645              1.816              1.987
 Vibration    20          0.649              1.805              1.927
 Vibration    21          0.660              1.770              1.763
 Vibration    22          0.661              1.768              1.751
 Vibration    23          0.671              1.738              1.632
 Vibration    24          0.676              1.722              1.573
 Vibration    25          0.703              1.643              1.331
 Vibration    26          0.711              1.622              1.275
 Vibration    27          0.765              1.473              0.968
 Vibration    28          0.771              1.457              0.941
 Vibration    29          0.779              1.436              0.907
 Vibration    30          0.789              1.410              0.866
 Vibration    31          0.809              1.360              0.795
 Vibration    32          0.823              1.326              0.750
 Vibration    33          0.903              1.144              0.548
 Vibration    34          0.936              1.075              0.486
 Vibration    35          0.955              1.038              0.455

 Optimization completed.
    -- Stationary point found.
 Normal termination of Gaussian 16 at Sun Mar 12 12:29:55 2023.
