 Gaussian 16, Revision A.03,
 Gaussian 16:  ES64L-G16RevA.03 25-Dec-2016

 -----------------------------------------
 # wB97XD/aug-cc-pVDZ opt=(MaxStep=1) freq
 -----------------------------------------

 ----
 blah
 ----
 Symbolic Z-matrix:
 Charge =  1 Multiplicity = 1

 SCF Done:  E(RwB97XD) =  -881.460484815     A.U. after   15 cycles
 SCF Done:  E(RwB97XD) =  -881.460494743     A.U. after   10 cycles
 SCF Done:  E(RwB97XD) =  -881.460522457     A.U. after   11 cycles
 SCF Done:  E(RwB97XD) =  -881.459937813     A.U. after   14 cycles
 SCF Done:  E(RwB97XD) =  -881.460420623     A.U. after   14 cycles
 SCF Done:  E(RwB97XD) =  -881.460564325     A.U. after   12 cycles
 SCF Done:  E(RwB97XD) =  -881.460604311     A.U. after   11 cycles
 SCF Done:  E(RwB97XD) =  -881.460628726     A.U. after   12 cycles
 SCF Done:  E(RwB97XD) =  -881.460648624     A.U. after   11 cycles
 SCF Done:  E(RwB97XD) =  -881.460655142     A.U. after   11 cycles
 SCF Done:  E(RwB97XD) =  -881.460662670     A.U. after   10 cycles
 SCF Done:  E(RwB97XD) =  -881.460664111     A.U. after   11 cycles
 SCF Done:  E(RwB97XD) =  -881.460665010     A.U. after   10 cycles
 SCF Done:  E(RwB97XD) =  -881.460665741     A.U. after    9 cycles
 SCF Done:  E(RwB97XD) =  -881.460666366     A.U. after   11 cycles
 SCF Done:  E(RwB97XD) =  -881.460666678     A.U. after   10 cycles
 SCF Done:  E(RwB97XD) =  -881.460666993     A.U. after    9 cycles
 SCF Done:  E(RwB97XD) =  -881.460666988     A.U. after    8 cycles
 SCF Done:  E(RwB97XD) =  -881.460667031     A.U. after    8 cycles
 Optimization completed.
    -- Stationary point found.
 Normal termination of Gaussian 16 at Wed Mar  8 19:43:09 2023.

 ----------------------------------------------------------------------
 #N Geom=AllCheck Guess=TCheck SCRF=Check GenChk RwB97XD/Aug-CC-pVDZ Fr
 eq
 ----------------------------------------------------------------------

 Structure from the checkpoint file:  "/gscratch/scrubbed/gds001/Gau-18354.chk"
 ----
 blah
 ----
 Charge =  1 Multiplicity = 1

                         Standard orientation:
 ---------------------------------------------------------------------
 Center     Atomic      Atomic             Coordinates (Angstroms)
 Number     Number       Type             X           Y           Z
 ---------------------------------------------------------------------
      1          7           0        1.110227    1.875027    0.837811
      2          6           0        1.662141    2.526701   -0.194902
      3          6           0        1.068886    2.570062   -1.451938
      4          6           0       -0.145041    1.909600   -1.639099
      5          6           0       -0.738703    1.237621   -0.572281
      6          6           0       -0.059838    1.259781    0.648827
      7          6           0       -2.054005    0.511733   -0.726478
      8          6           0       -3.168825    0.935960    0.248352
      9          6           0       -4.014220   -0.343673    0.456584
     10          6           0       -3.335083   -1.395958   -0.425793
     11          7           0       -1.936567   -0.944195   -0.505747
     12          6           0       -1.169882   -1.628207   -1.543592
     13          1           0        2.611050    3.027648   -0.001229
     14          1           0        1.547060    3.112746   -2.265327
     15          1           0       -0.630783    1.921535   -2.615508
     16          1           0       -0.472050    0.749562    1.520433
     17          1           0       -2.405887    0.674725   -1.762937
     18          1           0       -3.747588    1.765985   -0.169634
     19          1           0       -2.743264    1.283992    1.196210
     20          1           0       -5.062385   -0.203766    0.174682
     21          1           0       -3.994603   -0.650020    1.508570
     22          1           0       -3.782650   -1.414632   -1.435674
     23          1           0       -3.382445   -2.414305   -0.020034
     24          1           0       -1.601690   -1.457021   -2.545291
     25          1           0       -1.172066   -2.706504   -1.344528
     26          1           0       -0.130514   -1.279526   -1.533925
     27          8           0        2.384309    0.672517    2.894166
     28          8           0       -0.774830   -1.696347    1.791070
     29          8           0        1.738576   -1.481564    1.740791
     30          1           0        2.291843    0.955091    3.806842
     31          1           0       -1.202507   -2.490549    2.119905
     32          1           0        2.003005   -1.277092    0.785061
     33          1           0        1.954770    1.339940    2.300708
     34          1           0        1.997739   -0.676290    2.313689
     35          1           0        0.723046   -1.619878    1.777021
     36          1           0       -1.243684   -1.408382    0.938008
     37          8           0        2.302134   -0.908878   -0.696056
     38          1           0        2.332483    0.029203   -0.908981
     39          1           0        3.074307   -1.319130   -1.140321
     40          8           0        4.452390   -1.991950   -1.930230
     41          1           0        4.423783   -2.561192   -2.703800
     42          1           0        5.304199   -2.149911   -1.514398
 ---------------------------------------------------------------------

 SCF Done:  E(RwB97XD) =  -881.460667031     A.U. after    1 cycles

 The electronic state is 1-A.
 Alpha  occ. eigenvalues --  -19.44543 -19.41386 -19.40854 -19.39830 -19.39655
 Alpha  occ. eigenvalues --  -14.58848 -14.58081 -10.46299 -10.46236 -10.45240
 Alpha  occ. eigenvalues --  -10.44423 -10.44097 -10.43549 -10.43256 -10.42820
 Alpha  occ. eigenvalues --  -10.40617 -10.40139  -1.30904  -1.26098  -1.24735
 Alpha  occ. eigenvalues --   -1.24113  -1.23646  -1.18436  -1.16904  -1.04396
 Alpha  occ. eigenvalues --   -1.00821  -0.99613  -0.93856  -0.88987  -0.86039
 Alpha  occ. eigenvalues --   -0.84860  -0.79808  -0.79581  -0.79350  -0.79121
 Alpha  occ. eigenvalues --   -0.76571  -0.76395  -0.76155  -0.74845  -0.73078
 Alpha  occ. eigenvalues --   -0.71166  -0.70063  -0.68757  -0.66213  -0.65666
 Alpha  occ. eigenvalues --   -0.65174  -0.64171  -0.63525  -0.62238  -0.61874
 Alpha  occ. eigenvalues --   -0.61547  -0.59988  -0.59908  -0.59486  -0.59032
 Alpha  occ. eigenvalues --   -0.58218  -0.56496  -0.55581  -0.54527  -0.54508
 Alpha  occ. eigenvalues --   -0.54379  -0.53800  -0.53454  -0.53342  -0.51649
 Alpha  occ. eigenvalues --   -0.49509  -0.48355  -0.46267  -0.44675
 Alpha virt. eigenvalues --   -0.09495  -0.08179  -0.06663  -0.05459  -0.04621
 Alpha virt. eigenvalues --   -0.04585  -0.03327  -0.03078  -0.02753  -0.02314
 Alpha virt. eigenvalues --   -0.01939  -0.01472  -0.01117  -0.00870  -0.00543

 Mulliken charges:
               1
     1  N   -0.668913
     2  C    0.372896
     3  C    0.639512
     4  C    1.169343
     5  C    0.567226
     6  C    0.968718
     7  C    1.243637
     8  C    1.049891
     9  C    0.812759
    10  C    1.311645
    11  N   -1.690623
    12  C    1.307533
    13  H   -0.650908
    14  H   -0.615188
    15  H   -0.934081
    16  H   -1.271878
    17  H   -0.833109
    18  H   -0.513932
    19  H   -0.314508
    20  H   -0.292049
    21  H   -0.310559
    22  H   -0.508168
    23  H   -0.552282
    24  H   -0.182677
    25  H   -0.217681
    26  H   -0.256351
    27  O   -0.409060
    28  O   -0.470806
    29  O   -0.518371
    30  H    0.188847
    31  H    0.158947
    32  H    0.494503
    33  H    0.319082
    34  H    0.504113
    35  H    0.478688
    36  H    0.654379
    37  O   -0.563215
    38  H    0.221179
    39  H    0.339047
    40  O   -0.308542
    41  H    0.140113
    42  H    0.140843
 Sum of Mulliken charges =   1.00000

 Dipole moment (field-independent basis, Debye):
    X=              3.1696    Y=             -2.1263    Z=             -1.5691  Tot=              4.1267
 Quadrupole moment (field-independent basis, Debye-Ang):
   XX=            -52.4592   YY=            -80.0317   ZZ=            -77.0673
   XY=             -4.7459   XZ=             -8.6286   YZ=              2.2974

  Exact polarizability: 188.533  19.337 158.282   2.480  -6.382 165.607
 Approx polarizability: 190.919  17.907 171.144   4.591  -9.315 194.909

                      1                      2                      3
                      A                      A                      A
 Frequencies --     20.7590                28.3192                46.3333
 Red. masses --      4.6990                 4.5261                 4.5368
 Frc consts  --      0.0012                 0.0021                 0.0057
 IR Inten    --      1.3131                 0.7728                 0.9581

                      4                      5                      6
                      A                      A                      A
 Frequencies --     51.0420                57.4449                65.6154
 Red. masses --      3.5846                 3.3426                 3.8413
 Frc consts  --      0.0055                 0.0065                 0.0097
 IR Inten    --      0.7060                 0.5209                 0.4058

                      7                      8                      9
                      A                      A                      A
 Frequencies --     75.0806                80.9500                89.7502
 Red. masses --      4.0684                 4.9088                 2.5568
 Frc consts  --      0.0135                 0.0190                 0.0121
 IR Inten    --      0.8290                 0.7594                 1.5368

                     10                     11                     12
                      A                      A                      A
 Frequencies --    102.6020               105.4407               114.6238
 Red. masses --      1.2899                 4.3315                 5.2501
 Frc consts  --      0.0080                 0.0284                 0.0406
 IR Inten    --      2.7070                 0.9539                 1.9600

                     13                     14                     15
                      A                      A                      A
 Frequencies --    124.2057               172.9166               185.2066
 Red. masses --      4.3256                 2.0655                 4.2682
 Frc consts  --      0.0393                 0.0364                 0.0863
 IR Inten    --      1.7056                 2.6880                13.0712

                     16                     17                     18
                      A                      A                      A
 Frequencies --    187.6431               206.0395               222.2878
 Red. masses --      1.1820                 4.0125                 3.6520
 Frc consts  --      0.0245                 0.1004                 0.1063
 IR Inten    --    201.4775                17.6190                10.5520

                     19                     20                     21
                      A                      A                      A
 Frequencies --    243.3050               260.8836               277.3740
 Red. masses --      4.3906                 2.0283                 1.2323
 Frc consts  --      0.1531                 0.0813                 0.0559
 IR Inten    --     58.0184                 0.5636                 2.9520

                     22                     23                     24
                      A                      A                      A
 Frequencies --    282.2388               292.2609               304.8171
 Red. masses --      1.2006                 1.1821                 1.1800
 Frc consts  --      0.0563                 0.0595                 0.0646
 IR Inten    --     12.3103               116.4354                60.3626

                     25                     26                     27
                      A                      A                      A
 Frequencies --    324.3748               336.4050               353.8363
 Red. masses --      3.7378                 1.9419                 2.2111
 Frc consts  --      0.2317                 0.1295                 0.1631
 IR Inten    --     14.1805                35.4647                54.0023

                     28                     29                     30
                      A                      A                      A
 Frequencies --    363.3923               369.7840               405.8637
 Red. masses --      5.1706                 2.6844                 2.8842
 Frc consts  --      0.4023                 0.2163                 0.2799
 IR Inten    --     21.3062               137.6658                 1.2469

                     31                     32                     33
                      A                      A                      A
 Frequencies --    424.6808               434.9426               499.9027
 Red. masses --      3.1252                 3.2655                 1.0796
 Frc consts  --      0.3321                 0.3640                 0.1590
 IR Inten    --      7.5000                23.8548                69.0879

                     34                     35                     36
                      A                      A                      A
 Frequencies --    540.0531               568.4340               583.1996
 Red. masses --      2.0342                 1.8209                 2.4006
 Frc consts  --      0.3496                 0.3466                 0.4811
 IR Inten    --     22.4804                20.3971                 8.8607

                     37                     38                     39
                      A                      A                      A
 Frequencies --    631.0921               653.4294               670.5822
 Red. masses --      2.0568                 4.4358                 1.4332
 Frc consts  --      0.4826                 1.1159                 0.3797
 IR Inten    --     11.9336                28.6717                31.9516

                     40                     41                     42
                      A                      A                      A
 Frequencies --    677.2254               744.8050               780.9051
 Red. masses --      5.1981                 2.0416                 1.5090
 Frc consts  --      1.4046                 0.6673                 0.5422
 IR Inten    --      1.7589                30.2525                15.5525

                     43                     44                     45
                      A                      A                      A
 Frequencies --    784.3855               826.1803               836.5691
 Red. masses --      1.0290                 1.0570                 1.7076
 Frc consts  --      0.3730                 0.4251                 0.7041
 IR Inten    --     13.2253                66.8630                17.4100

                     46                     47                     48
                      A                      A                      A
 Frequencies --    843.0133               865.0844               930.6955
 Red. masses --      1.7189                 1.1970                 1.6380
 Frc consts  --      0.7197                 0.5278                 0.8360
 IR Inten    --     17.9570                56.4588                17.0622

                     49                     50                     51
                      A                      A                      A
 Frequencies --    934.4535               954.3079               981.9038
 Red. masses --      3.5340                 2.4554                 1.2266
 Frc consts  --      1.8182                 1.3175                 0.6968
 IR Inten    --      1.6752                 3.8565                18.7849

                     52                     53                     54
                      A                      A                      A
 Frequencies --    987.3350               997.6795              1013.9871
 Red. masses --      1.2927                 1.4504                 1.6567
 Frc consts  --      0.7424                 0.8506                 1.0036
 IR Inten    --     18.7970                16.8410                 6.7937

                     55                     56                     57
                      A                      A                      A
 Frequencies --   1023.0702              1032.7859              1052.6953
 Red. masses --      1.0605                 1.4076                 4.9522
 Frc consts  --      0.6540                 0.8846                 3.2333
 IR Inten    --     35.5593                 0.8242                 4.9146

                     58                     59                     60
                      A                      A                      A
 Frequencies --   1058.2091              1064.9378              1075.0509
 Red. masses --      2.2507                 1.1185                 1.8445
 Frc consts  --      1.4849                 0.7474                 1.2560
 IR Inten    --      8.7161                26.9256                13.7749

                     61                     62                     63
                      A                      A                      A
 Frequencies --   1094.2119              1117.5119              1150.7891
 Red. masses --      2.0482                 2.2885                 1.3178
 Frc consts  --      1.4449                 1.6839                 1.0283
 IR Inten    --      5.9887                 8.4878                 4.4523

                     64                     65                     66
                      A                      A                      A
 Frequencies --   1154.8108              1194.8352              1219.8168
 Red. masses --      1.3503                 1.8348                 1.5391
 Frc consts  --      1.0610                 1.5434                 1.3493
 IR Inten    --     20.9207                19.5922                18.8437

                     67                     68                     69
                      A                      A                      A
 Frequencies --   1237.3516              1241.9735              1259.2732
 Red. masses --      1.4926                 1.7523                 1.6967
 Frc consts  --      1.3464                 1.5925                 1.5853
 IR Inten    --      2.2438                 9.3735                16.2549

                     70                     71                     72
                      A                      A                      A
 Frequencies --   1263.7686              1288.1782              1300.4469
 Red. masses --      1.7203                 1.6124                 1.3701
 Frc consts  --      1.6188                 1.5765                 1.3652
 IR Inten    --     15.3962                 4.9100                 6.1557

                     73                     74                     75
                      A                      A                      A
 Frequencies --   1316.3174              1332.1200              1358.4388
 Red. masses --      3.8228                 1.3721                 1.1051
 Frc consts  --      3.9026                 1.4346                 1.2015
 IR Inten    --      3.5578                 2.7098               303.4326

                     76                     77                     78
                      A                      A                      A
 Frequencies --   1365.7068              1375.6458              1382.0892
 Red. masses --      1.3360                 1.4556                 1.4801
 Frc consts  --      1.4681                 1.6230                 1.6657
 IR Inten    --      4.7489                 9.4400                 5.4684

                     79                     80                     81
                      A                      A                      A
 Frequencies --   1412.3589              1455.2051              1481.5680
 Red. masses --      1.5855                 1.1992                 2.1197
 Frc consts  --      1.8634                 1.4962                 2.7414
 IR Inten    --      3.4147                 1.9258                31.5472

                     82                     83                     84
                      A                      A                      A
 Frequencies --   1487.8618              1491.7513              1493.8768
 Red. masses --      1.0752                 1.0705                 1.0525
 Frc consts  --      1.4024                 1.4035                 1.3839
 IR Inten    --      4.0095                12.4178                 7.3794

                     85                     86                     87
                      A                      A                      A
 Frequencies --   1507.7478              1522.4209              1533.3645
 Red. masses --      1.0969                 1.1922                 2.0525
 Frc consts  --      1.4692                 1.6280                 2.8433
 IR Inten    --     12.2971                11.3030                 8.4122

                     88                     89                     90
                      A                      A                      A
 Frequencies --   1612.3274              1631.8176              1651.7826
 Red. masses --      1.0841                 1.0879                 1.0765
 Frc consts  --      1.6605                 1.7068                 1.7305
 IR Inten    --     74.7879                43.0696                72.8803

                     91                     92                     93
                      A                      A                      A
 Frequencies --   1663.3241              1674.9302              1683.4405
 Red. masses --      4.9884                 1.1110                 5.1530
 Frc consts  --      8.1313                 1.8364                 8.6040
 IR Inten    --      7.9916                 2.6422                10.6824

                     94                     95                     96
                      A                      A                      A
 Frequencies --   1723.0638              1749.9048              2584.3369
 Red. masses --      1.0448                 1.0445                 1.1119
 Frc consts  --      1.8276                 1.8844                 4.3752
 IR Inten    --     18.0733                 2.6507              2693.7599

                     97                     98                     99
                      A                      A                      A
 Frequencies --   2749.4927              2864.2932              2983.7215
 Red. masses --      1.0968                 1.0798                 1.0833
 Frc consts  --      4.8851                 5.2193                 5.6821
 IR Inten    --   1413.0841              1441.6007                 2.9319

                    100                    101                    102
                      A                      A                      A
 Frequencies --   2988.4803              3002.9648              3009.2261
 Red. masses --      1.0398                 1.0560                 1.0634
 Frc consts  --      5.4715                 5.6107                 5.6735
 IR Inten    --    742.1654                 5.7767                40.4298

                    103                    104                    105
                      A                      A                      A
 Frequencies --   3095.6029              3104.2410              3111.9828
 Red. masses --      1.0637                 1.0686                 1.0876
 Frc consts  --      6.0058                 6.0672                 6.2056
 IR Inten    --     11.9290                20.3959                11.0823

                    106                    107                    108
                      A                      A                      A
 Frequencies --   3116.3423              3146.6973              3154.2699
 Red. masses --      1.0886                 1.1054                 1.1046
 Frc consts  --      6.2289                 6.4488                 6.4749
 IR Inten    --     34.5246                 0.3920                 8.0314

                    109                    110                    111
                      A                      A                      A
 Frequencies --   3164.6147              3199.3066              3202.4651
 Red. masses --      1.1056                 1.0919                 1.0908
 Frc consts  --      6.5234                 6.5848                 6.5915
 IR Inten    --     22.5490                 5.7374                 3.0364

                    112                    113                    114
                      A                      A                      A
 Frequencies --   3209.0021              3237.1248              3316.2955
 Red. masses --      1.0926                 1.0983                 1.0668
 Frc consts  --      6.6292                 6.7810                 6.9123
 IR Inten    --      4.5083                 3.4341              1448.5418

                    115                    116                    117
                      A                      A                      A
 Frequencies --   3536.8914              3876.9104              3894.6403
 Red. masses --      1.0615                 1.0452                 1.0682
 Frc consts  --      7.8235                 9.2560                 9.5461
 IR Inten    --   1035.8988                49.8865               170.0911

                    118                    119                    120
                      A                      A                      A
 Frequencies --   3931.1820              3942.7017              3981.7625
 Red. masses --      1.0662                 1.0677                 1.0831
 Frc consts  --      9.7078                 9.7786                10.1178
 IR Inten    --     96.8310               149.5972               118.3832

 - Thermochemistry -
 -------------------
 Temperature   298.150 Kelvin.  Pressure   1.00000 Atm.
 Atom     1 has atomic number  7 and mass  14.00307

 Molecular mass:   253.17635 amu.
 Principal axes and moments of inertia in atomic units:
                           1         2         3
     Eigenvalues --  3974.301496726.950727116.04457
           X            0.99998   0.00037  -0.00582
           Y           -0.00005   0.99857   0.05343
           Z            0.00583  -0.05343   0.99855
 This molecule is an asymmetric top.
 Rotational symmetry number  1.
 Warning -- assumption of classical behavior for rotation
           may cause significant error
 Rotational temperatures (Kelvin)      0.02179     0.01288     0.01217
 Rotational constants (GHZ):           0.45410     0.26829     0.25362
 Zero-point vibrational energy     963334.6 (Joules/Mol)
                                  230.24250 (Kcal/Mol)
 Warning -- explicit consideration of  36 degrees of freedom as
           vibrations may cause significant error
 Vibrational temperatures:     29.87    40.74    66.66    73.44    82.65
          (Kelvin)             94.41   108.02   116.47   129.13   147.62
                              151.71   164.92   178.70   248.79   266.47
                              269.98   296.44   319.82   350.06   375.35
                              399.08   406.08   420.50   438.56   466.70
                              484.01   509.09   522.84   532.04   583.95
                              611.02   625.79   719.25   777.02   817.85
                              839.09   908.00   940.14   964.82   974.38
                             1071.61  1123.55  1128.56  1188.69  1203.64
                             1212.91  1244.66  1339.06  1344.47  1373.04
                             1412.74  1420.55  1435.44  1458.90  1471.97
                             1485.95  1514.59  1522.53  1532.21  1546.76
                             1574.33  1607.85  1655.73  1661.52  1719.10
                             1755.04  1780.27  1786.92  1811.81  1818.28
                             1853.40  1871.05  1893.89  1916.62  1954.49
                             1964.95  1979.25  1988.52  2032.07  2093.72
                             2131.65  2140.70  2146.30  2149.36  2169.31
                             2190.42  2206.17  2319.78  2347.82  2376.55
                             2393.15  2409.85  2422.10  2479.10  2517.72
                             3718.28  3955.91  4121.08  4292.91  4299.76
                             4320.60  4329.61  4453.88  4466.31  4477.45
                             4483.72  4527.40  4538.29  4553.17  4603.09
                             4607.63  4617.04  4657.50  4771.41  5088.80
                             5578.01  5603.52  5656.09  5672.67  5728.87

 Zero-point correction=                           0.366915 (Hartree/Particle)
 Thermal correction to Energy=                    0.390825
 Thermal correction to Enthalpy=                  0.391769
 Thermal correction to Gibbs Free Energy=         0.312161
 Sum of electronic and zero-point Energies=           -881.093752
 Sum of electronic and thermal Energies=              -881.069842
 Sum of electronic and thermal Enthalpies=            -881.068898
 Sum of electronic and thermal Free Energies=         -881.148506

                     E (Thermal)             CV                S
                      KCal/Mol        Cal/Mol-Kelvin    Cal/Mol-Kelvin
 Total                  245.246             84.840            167.549
 Electronic               0.000              0.000              0.000
 Translational            0.889              2.981             42.487
 Rotational               0.889              2.981             33.608
 Vibrational            243.469             78.879             91.454
 Vibration     1          0.593              1.986              6.560
 Vibration     2          0.593              1.984              5.944
 Vibration     3          0.595              1.979              4.968
 Vibration     4          0.595              1.977              4.777
 Vibration     5          0.596              1.975              4.543
 Vibration     6          0.597              1.971              4.281
 Vibration     7          0.599              1.966              4.016
 Vibration     8          0.600              1.962              3.868
 Vibration     9          0.602              1.956              3.666
 Vibration    10          0.605              1.947              3.404
 Vibration    11          0.605              1.945              3.351
 Vibration    12          0.608              1.937              3.189
 Vibration    13          0.610              1.929              3.034
 Vibration    14          0.626              1.876              2.404
 Vibration    15          0.631              1.860              2.275
 Vibration    16          0.632              1.857              2.251
 Vibration    17          0.641              1.831              2.078
 Vibration    18          0.648              1.807              1.940
 Vibration    19          0.659              1.774              1.779
 Vibration    20          0.669              1.744              1.656
 Vibration    21          0.678              1.715              1.550
 Vibration    22          0.681              1.707              1.520
 Vibration    23          0.688              1.688              1.461
 Vibration    24          0.696              1.665              1.390
 Vibration    25          0.709              1.627              1.288
 Vibration    26          0.717              1.603              1.229
 Vibration    27          0.730              1.567              1.149
 Vibration    28          0.737              1.548              1.108
 Vibration    29          0.742              1.534              1.081
 Vibration    30          0.771              1.457              0.941
 Vibration    31          0.787              1.417              0.876
 Vibration    32          0.796              1.394              0.843
 Vibration    33          0.855              1.250              0.658
 Vibration    34          0.895              1.161              0.565
 Vibration    35          0.924              1.100              0.507
 Vibration    36          0.940              1.068              0.479

                           ! Non-Optimized Parameters !
 Normal termination of Gaussian 16 at Wed Mar  8 21:15:38 2023.
