 Gaussian 16, Revision A.03,
 Gaussian 16:  ES64L-G16RevA.03 25-Dec-2016

 ----------------------------------------------------------------
 # wB97XD/aug-cc-pVDZ opt=(TS,CalcAll,MaxStep=5,NoEigenTest) freq
 ----------------------------------------------------------------

 ----
 blah
 ----
 Symbolic Z-matrix:
 Charge =  1 Multiplicity = 1

 SCF Done:  E(RwB97XD) =  -881.457736807     A.U. after   16 cycles
 SCF Done:  E(RwB97XD) =  -881.457736543     A.U. after   11 cycles
 SCF Done:  E(RwB97XD) =  -881.457736799     A.U. after   10 cycles
 SCF Done:  E(RwB97XD) =  -881.457736598     A.U. after   10 cycles
 SCF Done:  E(RwB97XD) =  -881.457736635     A.U. after    9 cycles
 Optimization completed.
    -- Stationary point found.
 ******    1 imaginary frequencies (negative Signs) ******
    1 imaginary frequencies ignored.
 Normal termination of Gaussian 16 at Sat May 20 22:19:25 2023.

 ----------------------------------------------------------------------
 #N Geom=AllCheck Guess=TCheck SCRF=Check GenChk RwB97XD/Aug-CC-pVDZ Fr
 eq
 ----------------------------------------------------------------------

 Structure from the checkpoint file:  "/gscratch/scrubbed/gds001/Gau-24769.chk"
 ----
 blah
 ----
 Charge =  1 Multiplicity = 1

                         Standard orientation:
 ---------------------------------------------------------------------
 Center     Atomic      Atomic             Coordinates (Angstroms)
 Number     Number       Type             X           Y           Z
 ---------------------------------------------------------------------
      1          7           0        0.306657   -1.914901    0.055636
      2          6           0        1.313414   -1.336138   -0.861434
      3          6           0        0.575336   -1.276308   -2.213046
      4          6           0       -0.523046   -2.362339   -2.112043
      5          6           0       -0.305839   -2.996040   -0.735084
      6          6           0        1.870006   -0.028121   -0.356726
      7          6           0        1.039116    1.074300   -0.161143
      8          7           0        1.456200    2.251659    0.306426
      9          6           0        2.755784    2.394196    0.590591
     10          6           0        3.674466    1.364157    0.421047
     11          6           0        3.220710    0.135546   -0.052892
     12          8           0       -0.905582    3.562895    0.504167
     13          8           0       -1.840719   -0.608771    0.807622
     14          1           0       -1.230179   -3.337362   -0.254373
     15          1           0       -0.451379   -3.107487   -2.910449
     16          1           0       -1.519433   -1.909598   -2.170332
     17          1           0        1.274238   -1.453261   -3.036901
     18          1           0        0.136930   -0.284406   -2.371209
     19          1           0        0.386804   -3.853701   -0.796712
     20          1           0        2.151509   -2.052800   -0.943571
     21          1           0       -0.024213    1.009950   -0.396288
     22          1           0        3.068151    3.368684    0.966090
     23          1           0        4.724078    1.522808    0.661052
     24          1           0        3.916860   -0.693514   -0.186252
     25          6           0        0.873088   -2.377344    1.320949
     26          1           0        0.043568    3.271983    0.496248
     27          1           0       -0.950960   -1.017267    0.480090
     28          1           0       -2.043684   -0.938826    1.707249
     29          1           0       -1.948648    2.380171    0.464522
     30          1           0       -0.978807    4.317037    1.092613
     31          8           0       -2.580991    1.611641    0.333171
     32          1           0       -3.007721    1.701170   -0.549093
     33          1           0       -2.174798    0.526881    0.566914
     34          1           0        0.077839   -2.808522    1.940444
     35          1           0        1.313504   -1.530497    1.860394
     36          1           0        1.651820   -3.141931    1.159570
     37          8           0       -3.670865    1.823713   -2.117964
     38          1           0       -3.437282    2.571054   -2.676486
     39          1           0       -4.609037    1.671799   -2.264493
     40          8           0       -2.307248   -1.712707    3.238705
     41          1           0       -3.090065   -2.253182    3.379043
     42          1           0       -2.134068   -1.282097    4.080573
 ---------------------------------------------------------------------

 SCF Done:  E(RwB97XD) =  -881.457736635     A.U. after    1 cycles

 The electronic state is 1-A.
 Alpha  occ. eigenvalues --  -19.41866 -19.41598 -19.41056 -19.40092 -19.38034
 Alpha  occ. eigenvalues --  -14.58149 -14.57542 -10.45179 -10.44891 -10.44859
 Alpha  occ. eigenvalues --  -10.43184 -10.43020 -10.42970 -10.42790 -10.42064
 Alpha  occ. eigenvalues --  -10.40421 -10.39986  -1.27648  -1.26277  -1.25689
 Alpha  occ. eigenvalues --   -1.23891  -1.22079  -1.17430  -1.16552  -1.03376
 Alpha  occ. eigenvalues --   -1.00176  -0.98950  -0.93290  -0.88872  -0.84998
 Alpha  occ. eigenvalues --   -0.83880  -0.79715  -0.79066  -0.78297  -0.77133
 Alpha  occ. eigenvalues --   -0.76498  -0.76197  -0.76189  -0.74038  -0.72058
 Alpha  occ. eigenvalues --   -0.70395  -0.69405  -0.68294  -0.65653  -0.65143
 Alpha  occ. eigenvalues --   -0.64542  -0.63532  -0.62586  -0.61471  -0.61159
 Alpha  occ. eigenvalues --   -0.60772  -0.60190  -0.58984  -0.58131  -0.58000
 Alpha  occ. eigenvalues --   -0.56264  -0.56118  -0.55042  -0.54952  -0.54772
 Alpha  occ. eigenvalues --   -0.54048  -0.53896  -0.53243  -0.51968  -0.51440
 Alpha  occ. eigenvalues --   -0.48173  -0.47200  -0.45170  -0.44692
 Alpha virt. eigenvalues --   -0.08060  -0.06876  -0.06656  -0.05777  -0.04450
 Alpha virt. eigenvalues --   -0.04165  -0.03097  -0.02758  -0.02618  -0.02270
 Alpha virt. eigenvalues --   -0.02173  -0.01320  -0.00812  -0.00453  -0.00259

 Mulliken charges:
               1
     1  N   -1.231706
     2  C    1.043833
     3  C    1.125739
     4  C    0.849988
     5  C    1.417648
     6  C    0.584858
     7  C    1.105513
     8  N   -0.527307
     9  C    0.200281
    10  C    0.554165
    11  C    1.236652
    12  O   -0.456694
    13  O   -0.511172
    14  H   -0.598158
    15  H   -0.300412
    16  H   -0.323072
    17  H   -0.533583
    18  H   -0.334163
    19  H   -0.522982
    20  H   -0.872316
    21  H   -1.406159
    22  H   -0.603391
    23  H   -0.610634
    24  H   -0.908214
    25  C    1.096679
    26  H    0.364488
    27  H    0.621424
    28  H    0.259147
    29  H    0.413250
    30  H    0.172156
    31  O   -0.583011
    32  H    0.325771
    33  H    0.676667
    34  H   -0.325227
    35  H   -0.165432
    36  H   -0.190775
    37  O   -0.325542
    38  H    0.162087
    39  H    0.168973
    40  O   -0.441061
    41  H    0.194038
    42  H    0.197654
 Sum of Mulliken charges =   1.00000

 Dipole moment (field-independent basis, Debye):
    X=             -3.7558    Y=              0.2799    Z=              1.9510  Tot=              4.2416
 Quadrupole moment (field-independent basis, Debye-Ang):
   XX=            -53.7108   YY=            -69.4745   ZZ=            -71.3686
   XY=             -3.1440   XZ=              1.4339   YZ=             -6.5106

  Exact polarizability: 183.635   7.700 186.829   8.187  11.251 147.683
 Approx polarizability: 198.148   0.832 196.254   7.457  11.796 160.830

 ******    1 imaginary frequencies (negative Signs) ******

                      1                      2                      3
                      A                      A                      A
 Frequencies --   -295.4586                13.1048                16.7345
 Red. masses --      1.8499                 4.4212                 4.8082
 Frc consts  --      0.0951                 0.0004                 0.0008
 IR Inten    --   1352.0582                 0.4465                 1.8460

                      4                      5                      6
                      A                      A                      A
 Frequencies --     33.5180                34.4330                45.0784
 Red. masses --      4.5584                 4.5793                 4.3739
 Frc consts  --      0.0030                 0.0032                 0.0052
 IR Inten    --      4.6040                 3.2715                 0.6444

                      7                      8                      9
                      A                      A                      A
 Frequencies --     56.5753                61.1452                68.8865
 Red. masses --      3.7800                 3.2785                 3.2833
 Frc consts  --      0.0071                 0.0072                 0.0092
 IR Inten    --      3.7810                 0.6338                 2.3986

                     10                     11                     12
                      A                      A                      A
 Frequencies --     90.9002                97.6416               107.6959
 Red. masses --      4.3088                 4.4409                 1.9687
 Frc consts  --      0.0210                 0.0249                 0.0135
 IR Inten    --      0.3467                 0.1700                 9.0412

                     13                     14                     15
                      A                      A                      A
 Frequencies --    110.1421               122.6707               137.3413
 Red. masses --      1.5239                 4.1995                 1.0752
 Frc consts  --      0.0109                 0.0372                 0.0119
 IR Inten    --     20.9237                 3.7885                20.7805

                     16                     17                     18
                      A                      A                      A
 Frequencies --    181.0228               190.4535               208.3492
 Red. masses --      1.9869                 4.2159                 3.0967
 Frc consts  --      0.0384                 0.0901                 0.0792
 IR Inten    --      1.9639                10.6857                15.0831

                     19                     20                     21
                      A                      A                      A
 Frequencies --    226.2674               243.7365               251.0550
 Red. masses --      3.7335                 1.9258                 1.4895
 Frc consts  --      0.1126                 0.0674                 0.0553
 IR Inten    --     39.8792                67.4709                86.0667

                     22                     23                     24
                      A                      A                      A
 Frequencies --    257.4339               268.2325               277.7824
 Red. masses --      1.4711                 2.3494                 1.1983
 Frc consts  --      0.0574                 0.0996                 0.0545
 IR Inten    --     16.1338                 7.3037               186.3756

                     25                     26                     27
                      A                      A                      A
 Frequencies --    284.5062               286.8183               310.5625
 Red. masses --      1.1692                 1.3848                 2.8968
 Frc consts  --      0.0558                 0.0671                 0.1646
 IR Inten    --     94.7093                55.5748               124.5717

                     28                     29                     30
                      A                      A                      A
 Frequencies --    324.6429               345.7908               395.1411
 Red. masses --      3.9850                 1.2843                 2.8834
 Frc consts  --      0.2475                 0.0905                 0.2653
 IR Inten    --      3.4332               133.2144               191.6236

                     31                     32                     33
                      A                      A                      A
 Frequencies --    404.5984               419.8459               540.9247
 Red. masses --      2.9554                 3.1668                 3.6119
 Frc consts  --      0.2850                 0.3289                 0.6227
 IR Inten    --      0.5755                 5.1780               102.7723

                     34                     35                     36
                      A                      A                      A
 Frequencies --    573.1563               583.9247               603.2019
 Red. masses --      1.6286                 1.9567                 1.6498
 Frc consts  --      0.3152                 0.3931                 0.3537
 IR Inten    --    159.8312               170.8716               594.1828

                     37                     38                     39
                      A                      A                      A
 Frequencies --    639.4658               650.4939               660.4817
 Red. masses --      2.9224                 4.6905                 4.3652
 Frc consts  --      0.7041                 1.1694                 1.1220
 IR Inten    --     35.1426                80.3664               211.5220

                     40                     41                     42
                      A                      A                      A
 Frequencies --    677.9221               737.2584               781.7848
 Red. masses --      5.0370                 1.9175                 1.3249
 Frc consts  --      1.3639                 0.6141                 0.4771
 IR Inten    --      2.8448                21.1571                14.9443

                     43                     44                     45
                      A                      A                      A
 Frequencies --    784.0978               806.0335               818.8407
 Red. masses --      1.0913                 1.0936                 1.0560
 Frc consts  --      0.3953                 0.4186                 0.4172
 IR Inten    --     37.3023               457.5606               117.1175

                     46                     47                     48
                      A                      A                      A
 Frequencies --    830.8009               845.3702               858.7877
 Red. masses --      1.4434                 2.0997                 1.2480
 Frc consts  --      0.5870                 0.8841                 0.5423
 IR Inten    --     92.3867                 6.9781                98.2999

                     49                     50                     51
                      A                      A                      A
 Frequencies --    891.4679               932.6954               939.1167
 Red. masses --      1.1118                 2.1722                 2.2348
 Frc consts  --      0.5206                 1.1133                 1.1612
 IR Inten    --    137.2244                 2.0570                28.3265

                     52                     53                     54
                      A                      A                      A
 Frequencies --    956.4997               965.8655               985.8487
 Red. masses --      2.3024                 1.4098                 1.4771
 Frc consts  --      1.2411                 0.7749                 0.8458
 IR Inten    --     43.4850                13.1965                 0.1031

                     55                     56                     57
                      A                      A                      A
 Frequencies --   1007.0155              1024.2346              1053.9782
 Red. masses --      1.9077                 1.4102                 4.3936
 Frc consts  --      1.1398                 0.8716                 2.8757
 IR Inten    --      6.0923                 0.3444                68.9241

                     58                     59                     60
                      A                      A                      A
 Frequencies --   1058.4721              1071.6065              1077.7246
 Red. masses --      2.3288                 1.8375                 1.1265
 Frc consts  --      1.5372                 1.2432                 0.7709
 IR Inten    --      0.0401                21.0330               415.7159

                     61                     62                     63
                      A                      A                      A
 Frequencies --   1090.8792              1103.1297              1132.0592
 Red. masses --      1.8960                 1.7100                 1.4017
 Frc consts  --      1.3294                 1.2261                 1.0584
 IR Inten    --     15.2863                33.6652                65.9029

                     64                     65                     66
                      A                      A                      A
 Frequencies --   1152.1726              1159.2275              1190.6447
 Red. masses --      1.3321                 1.2882                 2.0485
 Frc consts  --      1.0419                 1.0199                 1.7110
 IR Inten    --     36.0053                33.8951                12.1088

                     67                     68                     69
                      A                      A                      A
 Frequencies --   1218.1011              1239.8862              1248.2122
 Red. masses --      1.5459                 1.5219                 1.8039
 Frc consts  --      1.3514                 1.3785                 1.6559
 IR Inten    --     16.0671                14.1519                22.5657

                     70                     71                     72
                      A                      A                      A
 Frequencies --   1260.6426              1262.1837              1286.6723
 Red. masses --      1.5052                 1.6754                 1.6451
 Frc consts  --      1.4094                 1.5726                 1.6046
 IR Inten    --     14.1946                 4.9424                 9.1881

                     73                     74                     75
                      A                      A                      A
 Frequencies --   1301.3138              1317.2972              1332.6428
 Red. masses --      1.3685                 3.9779                 1.3625
 Frc consts  --      1.3654                 4.0670                 1.4256
 IR Inten    --      7.3664                 1.8157                 2.4191

                     76                     77                     78
                      A                      A                      A
 Frequencies --   1366.1100              1372.8422              1381.6565
 Red. masses --      1.3338                 1.4742                 1.4616
 Frc consts  --      1.4666                 1.6370                 1.6439
 IR Inten    --      5.2135                13.3255                 5.8602

                     79                     80                     81
                      A                      A                      A
 Frequencies --   1410.8915              1448.7840              1480.8611
 Red. masses --      1.6151                 1.1912                 1.5948
 Frc consts  --      1.8943                 1.4732                 2.0605
 IR Inten    --      5.7639                 3.8544                44.5636

                     82                     83                     84
                      A                      A                      A
 Frequencies --   1483.9994              1488.4960              1490.3904
 Red. masses --      1.2287                 1.1097                 1.0458
 Frc consts  --      1.5943                 1.4486                 1.3687
 IR Inten    --     18.4640                11.8342                 0.7310

                     85                     86                     87
                      A                      A                      A
 Frequencies --   1495.3154              1506.5751              1520.6841
 Red. masses --      1.0742                 1.0937                 1.1522
 Frc consts  --      1.4152                 1.4626                 1.5699
 IR Inten    --     32.4636                17.3997                11.0199

                     88                     89                     90
                      A                      A                      A
 Frequencies --   1532.5766              1562.9149              1636.7282
 Red. masses --      2.1046                 1.0837                 1.0843
 Frc consts  --      2.9125                 1.5596                 1.7115
 IR Inten    --     14.2514                62.7883               104.8025

                     91                     92                     93
                      A                      A                      A
 Frequencies --   1638.3717              1661.1261              1677.4130
 Red. masses --      1.0855                 2.7158                 1.5187
 Frc consts  --      1.7167                 4.4153                 2.5177
 IR Inten    --     77.6474                32.4765                 8.3846

                     94                     95                     96
                      A                      A                      A
 Frequencies --   1689.1126              1746.2090              1782.4810
 Red. masses --      4.1137                 1.0663                 1.0751
 Frc consts  --      6.9152                 1.9156                 2.0126
 IR Inten    --     20.3318                62.4119               427.6368

                     97                     98                     99
                      A                      A                      A
 Frequencies --   2514.0650              2993.1784              3013.1472
 Red. masses --      1.0909                 1.0840                 1.0590
 Frc consts  --      4.0624                 5.7219                 5.6648
 IR Inten    --   1812.4175                14.3622                11.3931

                    100                    101                    102
                      A                      A                      A
 Frequencies --   3017.3198              3062.8251              3092.2039
 Red. masses --      1.0563                 1.0750                 1.0631
 Frc consts  --      5.6661                 5.9415                 5.9893
 IR Inten    --     45.6395              1553.2042                19.3484

                    103                    104                    105
                      A                      A                      A
 Frequencies --   3102.6732              3114.4655              3125.0990
 Red. masses --      1.0651                 1.0911                 1.0940
 Frc consts  --      6.0408                 6.2357                 6.2951
 IR Inten    --     22.0324                14.4533                28.4684

                    106                    107                    108
                      A                      A                      A
 Frequencies --   3144.0900              3152.7214              3162.1705
 Red. masses --      1.1048                 1.1049                 1.1054
 Frc consts  --      6.4346                 6.4706                 6.5122
 IR Inten    --      0.3099                12.4813                26.0496

                    109                    110                    111
                      A                      A                      A
 Frequencies --   3201.0993              3202.9428              3210.4596
 Red. masses --      1.0895                 1.0908                 1.0923
 Frc consts  --      6.5780                 6.5935                 6.6331
 IR Inten    --     21.9296                 4.0472                 5.0728

                    112                    113                    114
                      A                      A                      A
 Frequencies --   3238.6911              3280.5718              3462.2132
 Red. masses --      1.0982                 1.0677                 1.0670
 Frc consts  --      6.7868                 6.7702                 7.5354
 IR Inten    --      8.1476              1429.6260              1083.7059

                    115                    116                    117
                      A                      A                      A
 Frequencies --   3545.6043              3867.8126              3869.8302
 Red. masses --      1.0669                 1.0453                 1.0453
 Frc consts  --      7.9026                 9.2132                 9.2233
 IR Inten    --    851.3160                34.2371                34.2112

                    118                    119                    120
                      A                      A                      A
 Frequencies --   3946.7797              3970.1586              3972.9747
 Red. masses --      1.0670                 1.0827                 1.0828
 Frc consts  --      9.7927                10.0551                10.0696
 IR Inten    --    127.2081               113.1365               117.6759

 - Thermochemistry -
 -------------------
 Temperature   298.150 Kelvin.  Pressure   1.00000 Atm.
 Atom     1 has atomic number  7 and mass  14.00307

 Molecular mass:   253.17635 amu.
 Principal axes and moments of inertia in atomic units:
                           1         2         3
     Eigenvalues --  5352.432805752.959777533.33280
           X            0.99542  -0.09546   0.00538
           Y            0.09549   0.99542  -0.00540
           Z           -0.00484   0.00589   0.99997
 This molecule is an asymmetric top.
 Rotational symmetry number  1.
 Warning -- assumption of classical behavior for rotation
           may cause significant error
 Rotational temperatures (Kelvin)      0.01618     0.01506     0.01150
 Rotational constants (GHZ):           0.33718     0.31371     0.23957
    1 imaginary frequencies ignored.
 Zero-point vibrational energy     951993.5 (Joules/Mol)
                                  227.53190 (Kcal/Mol)
 Warning -- explicit consideration of  35 degrees of freedom as
           vibrations may cause significant error
 Vibrational temperatures:     18.85    24.08    48.22    49.54    64.86
          (Kelvin)             81.40    87.97    99.11   130.79   140.48
                              154.95   158.47   176.50   197.60   260.45
                              274.02   299.77   325.55   350.68   361.21
                              370.39   385.93   399.67   409.34   412.67
                              446.83   467.09   497.52   568.52   582.13
                              604.06   778.27   824.64   840.14   867.87
                              920.05   935.92   950.29   975.38  1060.75
                             1124.81  1128.14  1159.70  1178.13  1195.34
                             1216.30  1235.60  1282.62  1341.94  1351.18
                             1376.19  1389.67  1418.42  1448.87  1473.65
                             1516.44  1522.91  1541.80  1550.61  1569.53
                             1587.16  1628.78  1657.72  1667.87  1713.07
                             1752.58  1783.92  1795.90  1813.78  1816.00
                             1851.23  1872.30  1895.30  1917.38  1965.53
                             1975.21  1987.90  2029.96  2084.48  2130.63
                             2135.14  2141.61  2144.34  2151.43  2167.63
                             2187.93  2205.04  2248.69  2354.89  2357.25
                             2389.99  2413.42  2430.26  2512.41  2564.59
                             3617.18  4306.52  4335.25  4341.25  4406.72
                             4448.99  4464.05  4481.02  4496.32  4523.64
                             4536.06  4549.66  4605.67  4608.32  4619.14
                             4659.75  4720.01  4981.35  5101.33  5564.92
                             5567.82  5678.54  5712.17  5716.22

 Zero-point correction=                           0.362595 (Hartree/Particle)
 Thermal correction to Energy=                    0.386733
 Thermal correction to Enthalpy=                  0.387677
 Thermal correction to Gibbs Free Energy=         0.305345
 Sum of electronic and zero-point Energies=           -881.095141
 Sum of electronic and thermal Energies=              -881.071004
 Sum of electronic and thermal Enthalpies=            -881.070060
 Sum of electronic and thermal Free Energies=         -881.152391

                     E (Thermal)             CV                S
                      KCal/Mol        Cal/Mol-Kelvin    Cal/Mol-Kelvin
 Total                  242.679             84.309            173.282
 Electronic               0.000              0.000              0.000
 Translational            0.889              2.981             42.487
 Rotational               0.889              2.981             33.805
 Vibrational            240.901             78.347             96.990
 Vibration     1          0.593              1.987              7.474
 Vibration     2          0.593              1.986              6.988
 Vibration     3          0.594              1.983              5.610
 Vibration     4          0.594              1.983              5.556
 Vibration     5          0.595              1.979              5.022
 Vibration     6          0.596              1.975              4.573
 Vibration     7          0.597              1.973              4.420
 Vibration     8          0.598              1.969              4.185
 Vibration     9          0.602              1.956              3.641
 Vibration    10          0.603              1.951              3.501
 Vibration    11          0.606              1.943              3.310
 Vibration    12          0.606              1.941              3.266
 Vibration    13          0.610              1.930              3.058
 Vibration    14          0.614              1.916              2.841
 Vibration    15          0.630              1.866              2.318
 Vibration    16          0.634              1.853              2.223
 Vibration    17          0.642              1.828              2.058
 Vibration    18          0.650              1.801              1.908
 Vibration    19          0.659              1.773              1.775
 Vibration    20          0.663              1.761              1.723
 Vibration    21          0.667              1.750              1.679
 Vibration    22          0.673              1.732              1.608
 Vibration    23          0.679              1.715              1.547
 Vibration    24          0.683              1.702              1.506
 Vibration    25          0.684              1.698              1.493
 Vibration    26          0.699              1.654              1.359
 Vibration    27          0.709              1.626              1.287
 Vibration    28          0.724              1.584              1.185
 Vibration    29          0.762              1.481              0.981
 Vibration    30          0.770              1.460              0.946
 Vibration    31          0.783              1.427              0.892
 Vibration    32          0.896              1.160              0.563
 Vibration    33          0.929              1.089              0.498
 Vibration    34          0.941              1.066              0.478
 Vibration    35          0.962              1.025              0.444

 Optimization completed.
    -- Stationary point found.
 Normal termination of Gaussian 16 at Sat May 20 23:48:38 2023.
