 Gaussian 16, Revision A.03,
 Gaussian 16:  ES64L-G16RevA.03 25-Dec-2016

 ----------------------------------------------------------------
 # wB97XD/aug-cc-pVDZ opt=(TS,CalcAll,MaxStep=5,NoEigenTest) freq
 ----------------------------------------------------------------

 ----
 blah
 ----
 Symbolic Z-matrix:
 Charge =  1 Multiplicity = 1

 SCF Done:  E(RwB97XD) =  -881.454987342     A.U. after   15 cycles
 SCF Done:  E(RwB97XD) =  -881.455035903     A.U. after   14 cycles
 SCF Done:  E(RwB97XD) =  -881.455096634     A.U. after   14 cycles
 SCF Done:  E(RwB97XD) =  -881.455131326     A.U. after   13 cycles
 SCF Done:  E(RwB97XD) =  -881.455153397     A.U. after   14 cycles
 SCF Done:  E(RwB97XD) =  -881.455230852     A.U. after   13 cycles
 SCF Done:  E(RwB97XD) =  -881.455296555     A.U. after   14 cycles
 SCF Done:  E(RwB97XD) =  -881.455329561     A.U. after   12 cycles
 SCF Done:  E(RwB97XD) =  -881.455360983     A.U. after   12 cycles
 SCF Done:  E(RwB97XD) =  -881.455368041     A.U. after   11 cycles
 SCF Done:  E(RwB97XD) =  -881.455368215     A.U. after   10 cycles
 Optimization completed.
    -- Stationary point found.
 ******    1 imaginary frequencies (negative Signs) ******
    1 imaginary frequencies ignored.
 Normal termination of Gaussian 16 at Sun May 21 07:13:35 2023.

 ----------------------------------------------------------------------
 #N Geom=AllCheck Guess=TCheck SCRF=Check GenChk RwB97XD/Aug-CC-pVDZ Fr
 eq
 ----------------------------------------------------------------------

 Structure from the checkpoint file:  "/gscratch/scrubbed/gds001/Gau-15883.chk"
 ----
 blah
 ----
 Charge =  1 Multiplicity = 1

                         Standard orientation:
 ---------------------------------------------------------------------
 Center     Atomic      Atomic             Coordinates (Angstroms)
 Number     Number       Type             X           Y           Z
 ---------------------------------------------------------------------
      1          7           0       -0.475909   -1.899829   -0.485308
      2          6           0       -1.554586   -1.492869    0.424050
      3          6           0       -0.941865   -1.728632    1.818477
      4          6           0        0.076891   -2.872953    1.602434
      5          6           0        0.022418   -3.154861    0.095408
      6          6           0       -2.030713   -0.079704    0.194814
      7          6           0       -1.124695    0.948189   -0.050438
      8          7           0       -1.489611    2.220562   -0.231897
      9          6           0       -2.785526    2.549713   -0.165793
     10          6           0       -3.764692    1.596213    0.077227
     11          6           0       -3.380453    0.267899    0.251259
     12          8           0        0.585299    3.553846   -0.688763
     13          8           0        1.927070   -0.481012   -0.405131
     14          1           0        0.995396   -3.411316   -0.341182
     15          1           0       -0.173115   -3.766913    2.182799
     16          1           0        1.081055   -2.552401    1.900679
     17          1           0       -1.717442   -1.972414    2.552338
     18          1           0       -0.438973   -0.816114    2.160810
     19          1           0       -0.680455   -3.979648   -0.124731
     20          1           0       -2.421340   -2.170083    0.289681
     21          1           0       -0.056849    0.748884   -0.111179
     22          1           0       -3.032242    3.600123   -0.314418
     23          1           0       -4.811308    1.890222    0.121377
     24          1           0       -4.134287   -0.499483    0.430687
     25          6           0       -0.894330   -2.039337   -1.873662
     26          1           0       -0.376319    3.063033   -0.512240
     27          1           0        1.053247   -0.943565   -0.441683
     28          1           0        2.597223   -1.153049   -0.612523
     29          1           0        1.494361    2.823496   -0.593210
     30          1           0        0.584972    4.005156   -1.538391
     31          8           0        2.452097    2.062116   -0.484407
     32          1           0        3.071239    2.284776    0.243766
     33          1           0        2.262745    1.079875   -0.469488
     34          1           0       -0.042468   -2.372411   -2.477978
     35          1           0       -1.234225   -1.072611   -2.264659
     36          1           0       -1.712482   -2.774186   -1.984037
     37          8           0        4.223248    2.688389    1.454723
     38          1           0        4.017563    3.025854    2.330551
     39          1           0        5.086123    3.045825    1.227916
     40          8           0        3.607208   -2.639965   -0.966230
     41          1           0        4.246810   -2.971141   -0.329829
     42          1           0        4.005341   -2.785972   -1.828813
 ---------------------------------------------------------------------

 SCF Done:  E(RwB97XD) =  -881.455368215     A.U. after    1 cycles

 The electronic state is 1-A.
 Alpha  occ. eigenvalues --  -19.41310 -19.40916 -19.40167 -19.39950 -19.36260
 Alpha  occ. eigenvalues --  -14.60065 -14.56470 -10.46493 -10.46320 -10.44402
 Alpha  occ. eigenvalues --  -10.44185 -10.43856 -10.43255 -10.41880 -10.41814
 Alpha  occ. eigenvalues --  -10.39921 -10.39216  -1.27289  -1.25340  -1.24474
 Alpha  occ. eigenvalues --   -1.23762  -1.20434  -1.19145  -1.15807  -1.04320
 Alpha  occ. eigenvalues --   -1.00555  -0.98889  -0.93290  -0.87960  -0.86004
 Alpha  occ. eigenvalues --   -0.85119  -0.79136  -0.78156  -0.77784  -0.76965
 Alpha  occ. eigenvalues --   -0.76310  -0.75642  -0.74765  -0.73716  -0.71573
 Alpha  occ. eigenvalues --   -0.71016  -0.69361  -0.68067  -0.65506  -0.65024
 Alpha  occ. eigenvalues --   -0.64098  -0.63083  -0.62622  -0.62015  -0.61603
 Alpha  occ. eigenvalues --   -0.60951  -0.59778  -0.59291  -0.57377  -0.57254
 Alpha  occ. eigenvalues --   -0.55651  -0.55502  -0.54439  -0.54198  -0.54061
 Alpha  occ. eigenvalues --   -0.53932  -0.53055  -0.52431  -0.50957  -0.50373
 Alpha  occ. eigenvalues --   -0.49753  -0.49199  -0.45831  -0.42888
 Alpha virt. eigenvalues --   -0.09566  -0.07663  -0.06273  -0.05194  -0.04851
 Alpha virt. eigenvalues --   -0.04062  -0.03241  -0.02871  -0.02590  -0.02024
 Alpha virt. eigenvalues --   -0.01797  -0.01270  -0.00734  -0.00421  -0.00319

 Mulliken charges:
               1
     1  N   -1.031434
     2  C    1.428807
     3  C    1.123878
     4  C    0.734846
     5  C    1.656938
     6  C    0.313874
     7  C    0.920931
     8  N   -0.676978
     9  C    0.538363
    10  C    0.348527
    11  C    1.272244
    12  O   -0.537731
    13  O   -0.556159
    14  H   -0.655018
    15  H   -0.293485
    16  H   -0.311519
    17  H   -0.506998
    18  H   -0.275488
    19  H   -0.593391
    20  H   -0.912762
    21  H   -1.352288
    22  H   -0.651865
    23  H   -0.589667
    24  H   -0.879282
    25  C    0.963561
    26  H    0.505376
    27  H    0.567328
    28  H    0.250343
    29  H    0.625143
    30  H    0.144539
    31  O   -0.462535
    32  H    0.219382
    33  H    0.435558
    34  H   -0.276403
    35  H   -0.172538
    36  H   -0.230606
    37  O   -0.321627
    38  H    0.152623
    39  H    0.151513
    40  O   -0.498970
    41  H    0.217788
    42  H    0.215182
 Sum of Mulliken charges =   1.00000

 Dipole moment (field-independent basis, Debye):
    X=              3.4590    Y=              2.3464    Z=             -0.1487  Tot=              4.1824
 Quadrupole moment (field-independent basis, Debye-Ang):
   XX=            -35.5807   YY=            -56.5214   ZZ=            -90.7576
   XY=             -0.4283   XZ=              3.4582   YZ=              3.2920

  Exact polarizability: 190.703 -11.571 193.886  -1.524  -7.522 138.228
 Approx polarizability: 201.298  -3.601 198.927  -2.875  -7.407 155.969

 ******    1 imaginary frequencies (negative Signs) ******

                      1                      2                      3
                      A                      A                      A
 Frequencies --   -612.1483                11.3633                16.3693
 Red. masses --      1.2000                 4.6207                 4.5029
 Frc consts  --      0.2649                 0.0004                 0.0007
 IR Inten    --   3133.2184                 0.5965                 1.6424

                      4                      5                      6
                      A                      A                      A
 Frequencies --     24.9888                39.7805                48.9293
 Red. masses --      4.0997                 4.8090                 4.2001
 Frc consts  --      0.0015                 0.0045                 0.0059
 IR Inten    --      2.1352                 0.6291                 1.8894

                      7                      8                      9
                      A                      A                      A
 Frequencies --     56.0061                61.1574                76.1290
 Red. masses --      4.6261                 5.0550                 2.7833
 Frc consts  --      0.0085                 0.0111                 0.0095
 IR Inten    --      3.5653                 5.2772                 0.5170

                     10                     11                     12
                      A                      A                      A
 Frequencies --     82.8180                88.3370                89.5987
 Red. masses --      3.1529                 2.8758                 1.2480
 Frc consts  --      0.0127                 0.0132                 0.0059
 IR Inten    --      2.1808                 6.2408                 9.1051

                     13                     14                     15
                      A                      A                      A
 Frequencies --    111.5147               120.8428               144.1437
 Red. masses --      4.9375                 3.8196                 4.0530
 Frc consts  --      0.0362                 0.0329                 0.0496
 IR Inten    --      3.1782                 3.8650                17.7414

                     16                     17                     18
                      A                      A                      A
 Frequencies --    155.8780               175.4314               204.4123
 Red. masses --      1.0551                 2.0456                 1.3302
 Frc consts  --      0.0151                 0.0371                 0.0327
 IR Inten    --     21.5793                 0.4956               137.3730

                     19                     20                     21
                      A                      A                      A
 Frequencies --    207.9279               217.3244               230.7827
 Red. masses --      3.3506                 3.4900                 1.1205
 Frc consts  --      0.0853                 0.0971                 0.0352
 IR Inten    --     10.9963                72.7790                 7.5687

                     22                     23                     24
                      A                      A                      A
 Frequencies --    246.2054               256.3992               265.4661
 Red. masses --      1.1776                 3.1798                 2.5060
 Frc consts  --      0.0421                 0.1232                 0.1041
 IR Inten    --      0.6200                45.0878                16.7978

                     25                     26                     27
                      A                      A                      A
 Frequencies --    266.8623               289.1749               306.2147
 Red. masses --      1.3675                 1.1774                 4.0018
 Frc consts  --      0.0574                 0.0580                 0.2211
 IR Inten    --    196.7122                22.4964                 0.3041

                     28                     29                     30
                      A                      A                      A
 Frequencies --    331.3301               394.0196               404.0152
 Red. masses --      4.6313                 1.5406                 2.5953
 Frc consts  --      0.2996                 0.1409                 0.2496
 IR Inten    --     28.7423                96.2378                 9.9965

                     31                     32                     33
                      A                      A                      A
 Frequencies --    416.7609               428.4550               473.7574
 Red. masses --      2.6430                 3.2138                 2.3881
 Frc consts  --      0.2705                 0.3476                 0.3158
 IR Inten    --     37.4041                 6.7522               423.0265

                     34                     35                     36
                      A                      A                      A
 Frequencies --    542.7447               583.8365               629.8109
 Red. masses --      3.8855                 3.0379                 3.6509
 Frc consts  --      0.6743                 0.6101                 0.8532
 IR Inten    --      4.9910                 4.0828                20.1367

                     37                     38                     39
                      A                      A                      A
 Frequencies --    642.8389               675.3729               690.4358
 Red. masses --      2.9330                 5.3052                 3.3403
 Frc consts  --      0.7141                 1.4257                 0.9382
 IR Inten    --      4.3820                 8.2366                11.1423

                     40                     41                     42
                      A                      A                      A
 Frequencies --    712.9743               721.1930               727.2257
 Red. masses --      1.0592                 1.1412                 1.5521
 Frc consts  --      0.3172                 0.3497                 0.4836
 IR Inten    --     68.6598                47.1835                11.6917

                     43                     44                     45
                      A                      A                      A
 Frequencies --    742.3246               765.1451               782.9102
 Red. masses --      1.1592                 1.4008                 1.3833
 Frc consts  --      0.3763                 0.4832                 0.4996
 IR Inten    --     20.5434               503.8022                 8.7454

                     46                     47                     48
                      A                      A                      A
 Frequencies --    833.2987               840.3386               851.2586
 Red. masses --      1.1426                 1.6340                 1.9319
 Frc consts  --      0.4675                 0.6799                 0.8248
 IR Inten    --     78.2643                28.2677                21.1203

                     49                     50                     51
                      A                      A                      A
 Frequencies --    868.1445               937.0444               941.2873
 Red. masses --      1.0978                 1.7267                 3.1106
 Frc consts  --      0.4875                 0.8933                 1.6238
 IR Inten    --    148.9827                18.2752                 7.3463

                     52                     53                     54
                      A                      A                      A
 Frequencies --    957.8676               970.4990               985.0329
 Red. masses --      2.2541                 1.5160                 1.4913
 Frc consts  --      1.2185                 0.8413                 0.8526
 IR Inten    --     12.1795                 7.0723                 1.2823

                     55                     56                     57
                      A                      A                      A
 Frequencies --   1006.6240              1016.0639              1028.0433
 Red. masses --      1.8719                 1.0696                 1.3976
 Frc consts  --      1.1175                 0.6506                 0.8702
 IR Inten    --      9.3140               246.0773                 0.2822

                     58                     59                     60
                      A                      A                      A
 Frequencies --   1054.8957              1058.8814              1075.5415
 Red. masses --      2.3710                 4.7271                 1.8523
 Frc consts  --      1.5546                 3.1228                 1.2625
 IR Inten    --      2.4882                 6.3998                30.1696

                     61                     62                     63
                      A                      A                      A
 Frequencies --   1105.9141              1120.9810              1143.7396
 Red. masses --      2.0804                 2.2624                 1.2856
 Frc consts  --      1.4991                 1.6750                 0.9909
 IR Inten    --     24.2893                22.9130                 4.7553

                     64                     65                     66
                      A                      A                      A
 Frequencies --   1154.0442              1203.7682              1218.9199
 Red. masses --      1.4089                 1.9467                 1.4775
 Frc consts  --      1.1056                 1.6620                 1.2933
 IR Inten    --     17.5758                14.2396                26.0977

                     67                     68                     69
                      A                      A                      A
 Frequencies --   1233.7227              1244.1601              1260.9885
 Red. masses --      1.3916                 1.7597                 1.7057
 Frc consts  --      1.2479                 1.6049                 1.5980
 IR Inten    --      6.7270                11.4690                20.6306

                     70                     71                     72
                      A                      A                      A
 Frequencies --   1263.0650              1281.6684              1292.1455
 Red. masses --      1.7655                 1.1240                 1.4760
 Frc consts  --      1.6595                 1.0878                 1.4520
 IR Inten    --     14.4963               116.3825                 0.1786

                     73                     74                     75
                      A                      A                      A
 Frequencies --   1299.7322              1329.5152              1330.7753
 Red. masses --      1.4984                 1.3468                 3.2791
 Frc consts  --      1.4914                 1.4026                 3.4215
 IR Inten    --     15.1476                 2.2559                 6.2466

                     76                     77                     78
                      A                      A                      A
 Frequencies --   1356.1086              1373.1361              1384.7728
 Red. masses --      1.3979                 1.4705                 1.5118
 Frc consts  --      1.5147                 1.6336                 1.7081
 IR Inten    --      3.5265                 2.5904                 6.4124

                     79                     80                     81
                      A                      A                      A
 Frequencies --   1409.3748              1450.4558              1477.6330
 Red. masses --      1.6283                 1.2140                 1.6129
 Frc consts  --      1.9057                 1.5048                 2.0748
 IR Inten    --      5.4916                 0.8417                81.8257

                     82                     83                     84
                      A                      A                      A
 Frequencies --   1482.1794              1484.7826              1489.9884
 Red. masses --      1.0524                 1.0791                 1.0665
 Frc consts  --      1.3622                 1.4017                 1.3951
 IR Inten    --     10.7970                 3.4669                 7.4673

                     85                     86                     87
                      A                      A                      A
 Frequencies --   1501.5482              1505.0917              1519.7135
 Red. masses --      1.2545                 1.0992                 1.5561
 Frc consts  --      1.6665                 1.4671                 2.1174
 IR Inten    --     64.5797                 6.5241               131.2554

                     88                     89                     90
                      A                      A                      A
 Frequencies --   1524.5226              1556.4082              1633.2437
 Red. masses --      1.1521                 1.3013                 1.0884
 Frc consts  --      1.5777                 1.8573                 1.7106
 IR Inten    --     59.7795               133.3207               105.1387

                     91                     92                     93
                      A                      A                      A
 Frequencies --   1636.3361              1666.0425              1690.5250
 Red. masses --      1.0848                 4.7120                 4.3730
 Frc consts  --      1.7113                 7.7060                 7.3634
 IR Inten    --     78.5399               126.3803               207.1195

                     94                     95                     96
                      A                      A                      A
 Frequencies --   1726.2053              1741.2326              1748.6192
 Red. masses --      1.0955                 1.1531                 1.0896
 Frc consts  --      1.9233                 2.0598                 1.9630
 IR Inten    --    908.0279               892.9046              1048.6860

                     97                     98                     99
                      A                      A                      A
 Frequencies --   1781.1060              2963.5692              2992.9268
 Red. masses --      1.1087                 1.0833                 1.0679
 Frc consts  --      2.0722                 5.6057                 5.6363
 IR Inten    --    146.9301                62.4273                40.1787

                    100                    101                    102
                      A                      A                      A
 Frequencies --   2994.7684              3087.3266              3102.4080
 Red. masses --      1.0531                 1.0630                 1.0651
 Frc consts  --      5.5649                 5.9695                 6.0401
 IR Inten    --    151.2983                13.7349                32.3627

                    103                    104                    105
                      A                      A                      A
 Frequencies --   3105.9898              3114.8978              3119.0393
 Red. masses --      1.0854                 1.0732                 1.0923
 Frc consts  --      6.1696                 6.1348                 6.2608
 IR Inten    --     19.1634              2137.4566                11.7028

                    106                    107                    108
                      A                      A                      A
 Frequencies --   3142.2821              3148.0338              3161.3013
 Red. masses --      1.1049                 1.1041                 1.1060
 Frc consts  --      6.4279                 6.4467                 6.5122
 IR Inten    --      1.3662                19.6786                13.4444

                    109                    110                    111
                      A                      A                      A
 Frequencies --   3207.6491              3222.2796              3241.1472
 Red. masses --      1.0915                 1.0920                 1.0922
 Frc consts  --      6.6166                 6.6805                 6.7601
 IR Inten    --      1.3781                 1.2547                 6.0420

                    112                    113                    114
                      A                      A                      A
 Frequencies --   3243.5193              3316.4727              3521.3328
 Red. masses --      1.0982                 1.0695                 1.0672
 Frc consts  --      6.8071                 6.9308                 7.7968
 IR Inten    --      2.8385               741.8368              1014.1643

                    115                    116                    117
                      A                      A                      A
 Frequencies --   3701.8573              3872.3958              3875.3135
 Red. masses --      1.0666                 1.0455                 1.0451
 Frc consts  --      8.6117                 9.2366                 9.2477
 IR Inten    --    691.5197                24.2846                30.6664

                    118                    119                    120
                      A                      A                      A
 Frequencies --   3904.9203              3977.2527              3980.7420
 Red. masses --      1.0657                 1.0826                 1.0831
 Frc consts  --      9.5745                10.0895                10.1119
 IR Inten    --    116.2325               101.2636               119.4867

 - Thermochemistry -
 -------------------
 Temperature   298.150 Kelvin.  Pressure   1.00000 Atm.
 Atom     1 has atomic number  7 and mass  14.00307

 Molecular mass:   253.17635 amu.
 Principal axes and moments of inertia in atomic units:
                           1         2         3
     Eigenvalues --  5255.549895729.868799319.70884
           X            0.99778   0.06659   0.00279
           Y           -0.06659   0.99778   0.00243
           Z           -0.00263  -0.00261   0.99999
 This molecule is an asymmetric top.
 Rotational symmetry number  1.
 Warning -- assumption of classical behavior for rotation
           may cause significant error
 Rotational temperatures (Kelvin)      0.01648     0.01512     0.00929
 Rotational constants (GHZ):           0.34340     0.31497     0.19365
    1 imaginary frequencies ignored.
 Zero-point vibrational energy     948062.2 (Joules/Mol)
                                  226.59230 (Kcal/Mol)
 Warning -- explicit consideration of  34 degrees of freedom as
           vibrations may cause significant error
 Vibrational temperatures:     16.35    23.55    35.95    57.24    70.40
          (Kelvin)             80.58    87.99   109.53   119.16   127.10
                              128.91   160.44   173.87   207.39   224.27
                              252.41   294.10   299.16   312.68   332.04
                              354.23   368.90   381.95   383.96   416.06
                              440.57   476.71   566.91   581.29   599.63
                              616.45   681.63   780.89   840.01   906.16
                              924.90   971.71   993.38  1025.81  1037.64
                             1046.32  1068.04  1100.87  1126.43  1198.93
                             1209.06  1224.77  1249.07  1348.20  1354.30
                             1378.16  1396.33  1417.24  1448.31  1461.89
                             1479.13  1517.76  1523.49  1547.46  1591.16
                             1612.84  1645.59  1660.41  1731.95  1753.75
                             1775.05  1790.07  1814.28  1817.27  1844.04
                             1859.11  1870.02  1912.88  1914.69  1951.14
                             1975.64  1992.38  2027.78  2086.88  2125.98
                             2132.53  2136.27  2143.76  2160.39  2165.49
                             2186.53  2193.45  2239.32  2349.87  2354.32
                             2397.06  2432.29  2483.62  2505.25  2515.87
                             2562.61  4263.92  4306.15  4308.80  4441.97
                             4463.67  4468.83  4481.64  4487.60  4521.04
                             4529.32  4548.41  4615.09  4636.14  4663.29
                             4666.70  4771.66  5066.41  5326.15  5571.51
                             5575.71  5618.31  5722.38  5727.40

 Zero-point correction=                           0.361098 (Hartree/Particle)
 Thermal correction to Energy=                    0.385514
 Thermal correction to Enthalpy=                  0.386458
 Thermal correction to Gibbs Free Energy=         0.303006
 Sum of electronic and zero-point Energies=           -881.094270
 Sum of electronic and thermal Energies=              -881.069855
 Sum of electronic and thermal Enthalpies=            -881.068910
 Sum of electronic and thermal Free Energies=         -881.152362

                     E (Thermal)             CV                S
                      KCal/Mol        Cal/Mol-Kelvin    Cal/Mol-Kelvin
 Total                  241.913             84.695            175.639
 Electronic               0.000              0.000              0.000
 Translational            0.889              2.981             42.487
 Rotational               0.889              2.981             33.995
 Vibrational            240.136             78.733             99.157
 Vibration     1          0.593              1.987              7.757
 Vibration     2          0.593              1.986              7.032
 Vibration     3          0.593              1.985              6.192
 Vibration     4          0.594              1.981              5.270
 Vibration     5          0.595              1.978              4.860
 Vibration     6          0.596              1.975              4.593
 Vibration     7          0.597              1.973              4.419
 Vibration     8          0.599              1.965              3.988
 Vibration     9          0.600              1.961              3.823
 Vibration    10          0.601              1.957              3.697
 Vibration    11          0.602              1.957              3.669
 Vibration    12          0.607              1.940              3.242
 Vibration    13          0.609              1.932              3.087
 Vibration    14          0.616              1.909              2.748
 Vibration    15          0.620              1.896              2.599
 Vibration    16          0.627              1.873              2.376
 Vibration    17          0.640              1.834              2.093
 Vibration    18          0.641              1.829              2.062
 Vibration    19          0.646              1.815              1.981
 Vibration    20          0.652              1.794              1.873
 Vibration    21          0.661              1.769              1.758
 Vibration    22          0.666              1.752              1.686
 Vibration    23          0.671              1.736              1.626
 Vibration    24          0.672              1.734              1.616
 Vibration    25          0.686              1.694              1.479
 Vibration    26          0.697              1.662              1.383
 Vibration    27          0.714              1.613              1.254
 Vibration    28          0.761              1.483              0.985
 Vibration    29          0.769              1.461              0.948
 Vibration    30          0.780              1.434              0.903
 Vibration    31          0.790              1.408              0.864
 Vibration    32          0.831              1.308              0.727
 Vibration    33          0.898              1.156              0.559
 Vibration    34          0.941              1.066              0.478

 Optimization completed.
    -- Stationary point found.
 Normal termination of Gaussian 16 at Sun May 21 08:38:46 2023.
