 Gaussian 16, Revision A.03,
 Gaussian 16:  ES64L-G16RevA.03 25-Dec-2016

 -----------------------------------------
 # wB97XD/aug-cc-pVDZ opt=(MaxStep=1) freq
 -----------------------------------------

 ----
 blah
 ----
 Symbolic Z-matrix:
 Charge =  1 Multiplicity = 1

 SCF Done:  E(RwB97XD) =  -881.437380461     A.U. after   16 cycles
 SCF Done:  E(RwB97XD) =  -881.438355562     A.U. after    9 cycles
 SCF Done:  E(RwB97XD) =  -881.440310494     A.U. after   11 cycles
 SCF Done:  E(RwB97XD) =  -881.443881422     A.U. after   11 cycles
 SCF Done:  E(RwB97XD) =  -881.448684076     A.U. after   12 cycles
 SCF Done:  E(RwB97XD) =  -881.451657607     A.U. after   12 cycles
 SCF Done:  E(RwB97XD) =  -881.452415675     A.U. after   12 cycles
 SCF Done:  E(RwB97XD) =  -881.453377602     A.U. after   12 cycles
 SCF Done:  E(RwB97XD) =  -881.454589594     A.U. after   12 cycles
 SCF Done:  E(RwB97XD) =  -881.455546883     A.U. after   13 cycles
 SCF Done:  E(RwB97XD) =  -881.458252417     A.U. after   11 cycles
 SCF Done:  E(RwB97XD) =  -881.458253042     A.U. after   10 cycles
 SCF Done:  E(RwB97XD) =  -881.458253432     A.U. after    9 cycles
 SCF Done:  E(RwB97XD) =  -881.458253788     A.U. after    9 cycles
 SCF Done:  E(RwB97XD) =  -881.458254060     A.U. after   10 cycles
 SCF Done:  E(RwB97XD) =  -881.458254207     A.U. after    9 cycles
 SCF Done:  E(RwB97XD) =  -881.458254256     A.U. after    8 cycles
 SCF Done:  E(RwB97XD) =  -881.458254285     A.U. after    9 cycles
 SCF Done:  E(RwB97XD) =  -881.458254297     A.U. after    8 cycles
 Optimization completed.
    -- Stationary point found.
 Normal termination of Gaussian 16 at Thu May 18 02:04:39 2023.

 ----------------------------------------------------------------------
 #N Geom=AllCheck Guess=TCheck SCRF=Check GenChk RwB97XD/Aug-CC-pVDZ Fr
 eq
 ----------------------------------------------------------------------

 Structure from the checkpoint file:  "/gscratch/scrubbed/gds001/Gau-12450.chk"
 ----
 blah
 ----
 Charge =  1 Multiplicity = 1

                         Standard orientation:
 ---------------------------------------------------------------------
 Center     Atomic      Atomic             Coordinates (Angstroms)
 Number     Number       Type             X           Y           Z
 ---------------------------------------------------------------------
      1          7           0       -0.474921   -1.884442   -0.072985
      2          6           0       -1.518756   -1.269094    0.767928
      3          6           0       -0.899913   -1.286207    2.180550
      4          6           0        0.144250   -2.427925    2.139684
      5          6           0        0.006751   -3.015368    0.732579
      6          6           0       -1.939185    0.089266    0.264069
      7          6           0       -1.001414    1.107435    0.098864
      8          7           0       -1.293790    2.325854   -0.358346
      9          6           0       -2.568081    2.600380   -0.662590
     10          6           0       -3.584297    1.662422   -0.524061
     11          6           0       -3.260862    0.388551   -0.061450
     12          8           0        1.102472    3.487019   -0.571860
     13          8           0        1.876254   -0.670260   -0.653580
     14          1           0        0.947488   -3.399421    0.320076
     15          1           0       -0.031690   -3.185423    2.910002
     16          1           0        1.154880   -2.031020    2.288917
     17          1           0       -1.675771   -1.445576    2.936577
     18          1           0       -0.425573   -0.323524    2.404051
     19          1           0       -0.734015   -3.835624    0.716541
     20          1           0       -2.409760   -1.925759    0.759126
     21          1           0        0.045880    0.932187    0.347736
     22          1           0       -2.776178    3.605512   -1.029182
     23          1           0       -4.608621    1.925266   -0.781023
     24          1           0       -4.036410   -0.370890    0.045034
     25          6           0       -0.951235   -2.281819   -1.393818
     26          1           0        0.139606    3.208618   -0.541612
     27          1           0        0.968683   -1.020266   -0.401655
     28          1           0        2.186426   -1.191717   -1.416787
     29          1           0        2.081047    2.364984   -0.492770
     30          1           0        1.194237    4.168598   -1.241662
     31          8           0        2.748689    1.598593   -0.348324
     32          1           0        3.182508    1.693882    0.537937
     33          1           0        2.338715    0.628826   -0.485609
     34          1           0       -0.129689   -2.748428   -1.950557
     35          1           0       -1.288399   -1.397934   -1.948586
     36          1           0       -1.787478   -3.000077   -1.326518
     37          8           0        3.864514    1.855123    2.036380
     38          1           0        3.658351    2.606445    2.600308
     39          1           0        4.793440    1.656479    2.186055
     40          8           0        2.558492   -2.318840   -2.753166
     41          1           0        3.252056   -2.979193   -2.668846
     42          1           0        2.574331   -2.044748   -3.674362
 ---------------------------------------------------------------------

 SCF Done:  E(RwB97XD) =  -881.458254297     A.U. after    1 cycles

 The electronic state is 1-A.
 Alpha  occ. eigenvalues --  -19.43555 -19.42494 -19.41105 -19.39015 -19.38205
 Alpha  occ. eigenvalues --  -14.57734 -14.56979 -10.45168 -10.44922 -10.44269
 Alpha  occ. eigenvalues --  -10.43063 -10.42802 -10.42322 -10.42025 -10.41984
 Alpha  occ. eigenvalues --  -10.39957 -10.39453  -1.29750  -1.26647  -1.25453
 Alpha  occ. eigenvalues --   -1.23284  -1.22345  -1.17308  -1.15927  -1.03194
 Alpha  occ. eigenvalues --   -0.99706  -0.98671  -0.92882  -0.88142  -0.84833
 Alpha  occ. eigenvalues --   -0.83779  -0.79676  -0.79221  -0.78501  -0.78205
 Alpha  occ. eigenvalues --   -0.77161  -0.75712  -0.75552  -0.73913  -0.71999
 Alpha  occ. eigenvalues --   -0.70077  -0.69115  -0.67907  -0.65796  -0.64598
 Alpha  occ. eigenvalues --   -0.64299  -0.63577  -0.62111  -0.61745  -0.61307
 Alpha  occ. eigenvalues --   -0.60515  -0.60300  -0.58692  -0.58408  -0.57693
 Alpha  occ. eigenvalues --   -0.57447  -0.55629  -0.55557  -0.54442  -0.53982
 Alpha  occ. eigenvalues --   -0.53662  -0.53096  -0.52704  -0.52566  -0.50947
 Alpha  occ. eigenvalues --   -0.48102  -0.47455  -0.44857  -0.43527
 Alpha virt. eigenvalues --   -0.08046  -0.06782  -0.06677  -0.05768  -0.04560
 Alpha virt. eigenvalues --   -0.03959  -0.03037  -0.02787  -0.02595  -0.02210
 Alpha virt. eigenvalues --   -0.02001  -0.01306  -0.00834  -0.00363  -0.00272

 Mulliken charges:
               1
     1  N   -0.999794
     2  C    1.116216
     3  C    1.173786
     4  C    0.816167
     5  C    1.416814
     6  C    0.493615
     7  C    0.989150
     8  N   -0.559801
     9  C    0.250568
    10  C    0.515166
    11  C    1.268541
    12  O   -0.469127
    13  O   -0.577484
    14  H   -0.601082
    15  H   -0.305789
    16  H   -0.325668
    17  H   -0.531067
    18  H   -0.344043
    19  H   -0.534274
    20  H   -0.889259
    21  H   -1.434717
    22  H   -0.612094
    23  H   -0.605872
    24  H   -0.908416
    25  C    1.131360
    26  H    0.396699
    27  H    0.538110
    28  H    0.232115
    29  H    0.487925
    30  H    0.147680
    31  O   -0.462980
    32  H    0.377426
    33  H    0.586391
    34  H   -0.336443
    35  H   -0.173432
    36  H   -0.204769
    37  O   -0.320794
    38  H    0.160069
    39  H    0.168534
    40  O   -0.492063
    41  H    0.213180
    42  H    0.209460
 Sum of Mulliken charges =   1.00000

 Dipole moment (field-independent basis, Debye):
    X=              4.7682    Y=              0.9911    Z=             -1.3180  Tot=              5.0453
 Quadrupole moment (field-independent basis, Debye-Ang):
   XX=            -47.4246   YY=            -65.2206   ZZ=            -76.9151
   XY=              2.3329   XZ=              3.0832   YZ=              7.5130

  Exact polarizability: 183.632  -8.163 189.478   7.261 -12.234 146.798
 Approx polarizability: 198.399  -1.324 196.906   7.051 -12.294 160.600

                      1                      2                      3
                      A                      A                      A
 Frequencies --     12.1738                16.2854                28.7888
 Red. masses --      4.4918                 4.6398                 4.3866
 Frc consts  --      0.0004                 0.0007                 0.0021
 IR Inten    --      0.5514                 1.5766                 3.4359

                      4                      5                      6
                      A                      A                      A
 Frequencies --     39.3055                48.0489                54.7817
 Red. masses --      4.6801                 4.7402                 3.1909
 Frc consts  --      0.0043                 0.0064                 0.0056
 IR Inten    --      1.7188                 0.7153                 0.2611

                      7                      8                      9
                      A                      A                      A
 Frequencies --     58.9780                69.2787                81.4264
 Red. masses --      2.9421                 3.6606                 3.0976
 Frc consts  --      0.0060                 0.0104                 0.0121
 IR Inten    --      1.4863                 2.6893                 2.9610

                     10                     11                     12
                      A                      A                      A
 Frequencies --     92.0205                95.1720               101.1480
 Red. masses --      3.3421                 1.4205                 4.5326
 Frc consts  --      0.0167                 0.0076                 0.0273
 IR Inten    --      1.3604                17.8977                 5.3949

                     13                     14                     15
                      A                      A                      A
 Frequencies --    119.3360               143.5847               146.0771
 Red. masses --      4.3714                 1.7240                 1.6332
 Frc consts  --      0.0367                 0.0209                 0.0205
 IR Inten    --      1.0326                11.1847                23.3372

                     16                     17                     18
                      A                      A                      A
 Frequencies --    176.7449               202.3269               215.0255
 Red. masses --      2.0033                 3.9048                 4.0720
 Frc consts  --      0.0369                 0.0942                 0.1109
 IR Inten    --      2.6976                11.1139                 1.8159

                     19                     20                     21
                      A                      A                      A
 Frequencies --    224.9141               256.4306               259.9906
 Red. masses --      3.9022                 1.2568                 1.5321
 Frc consts  --      0.1163                 0.0487                 0.0610
 IR Inten    --     34.2544                 7.2695                12.0011

                     22                     23                     24
                      A                      A                      A
 Frequencies --    265.9611               268.6791               275.2461
 Red. masses --      1.4185                 1.5073                 1.2492
 Frc consts  --      0.0591                 0.0641                 0.0558
 IR Inten    --     48.9252                 2.6614               182.7515

                     25                     26                     27
                      A                      A                      A
 Frequencies --    280.4154               289.4889               320.4740
 Red. masses --      1.1635                 2.7294                 4.0781
 Frc consts  --      0.0539                 0.1348                 0.2468
 IR Inten    --    185.0062               103.0734                 4.7488

                     28                     29                     30
                      A                      A                      A
 Frequencies --    351.4767               383.7826               393.5022
 Red. masses --      1.6236                 2.4422                 2.7725
 Frc consts  --      0.1182                 0.2119                 0.2529
 IR Inten    --     17.6294                86.5916               106.8797

                     31                     32                     33
                      A                      A                      A
 Frequencies --    406.5373               419.7721               471.0107
 Red. masses --      2.9671                 3.2348                 4.3159
 Frc consts  --      0.2889                 0.3358                 0.5641
 IR Inten    --      3.2694                 1.2598                84.0572

                     34                     35                     36
                      A                      A                      A
 Frequencies --    546.6241               580.9286               623.7779
 Red. masses --      3.9151                 2.8904                 1.1796
 Frc consts  --      0.6892                 0.5747                 0.2704
 IR Inten    --      2.1416                 4.0465                51.8070

                     37                     38                     39
                      A                      A                      A
 Frequencies --    639.5626               658.9937               676.1723
 Red. masses --      2.9531                 5.4823                 4.7642
 Frc consts  --      0.7117                 1.4027                 1.2834
 IR Inten    --      4.4983                15.9681                 1.4230

                     40                     41                     42
                      A                      A                      A
 Frequencies --    734.7180               745.4078               774.8820
 Red. masses --      1.8533                 1.0527                 1.0541
 Frc consts  --      0.5894                 0.3446                 0.3729
 IR Inten    --     26.6678                58.0483                37.6503

                     43                     44                     45
                      A                      A                      A
 Frequencies --    781.8916               805.1216               835.6144
 Red. masses --      1.4923                 1.0460                 1.6141
 Frc consts  --      0.5375                 0.3995                 0.6640
 IR Inten    --     32.2174                14.8440                31.7577

                     46                     47                     48
                      A                      A                      A
 Frequencies --    847.5724               867.1596               916.9756
 Red. masses --      2.2868                 1.0473                 1.1469
 Frc consts  --      0.9679                 0.4640                 0.5682
 IR Inten    --     12.6239                56.6487                36.6898

                     49                     50                     51
                      A                      A                      A
 Frequencies --    931.3259               936.8889               953.3360
 Red. masses --      1.7530                 2.7407                 1.6956
 Frc consts  --      0.8959                 1.4174                 0.9080
 IR Inten    --     28.0872                 6.2133                 5.8008

                     52                     53                     54
                      A                      A                      A
 Frequencies --    959.4326               979.2397               987.7054
 Red. masses --      1.7160                 1.1996                 1.3625
 Frc consts  --      0.9307                 0.6777                 0.7832
 IR Inten    --     17.6034                15.9030                11.9546

                     55                     56                     57
                      A                      A                      A
 Frequencies --   1007.9195              1024.0092              1054.3656
 Red. masses --      1.9452                 1.4037                 5.0891
 Frc consts  --      1.1643                 0.8672                 3.3333
 IR Inten    --      8.3190                 0.2062                 6.4085

                     58                     59                     60
                      A                      A                      A
 Frequencies --   1058.9549              1074.5035              1093.2028
 Red. masses --      2.3481                 1.8233                 2.0701
 Frc consts  --      1.5514                 1.2403                 1.4576
 IR Inten    --      6.8287                14.8003                13.0009

                     61                     62                     63
                      A                      A                      A
 Frequencies --   1117.5676              1146.7080              1152.3906
 Red. masses --      2.2919                 1.2589                 1.3963
 Frc consts  --      1.6865                 0.9753                 1.0925
 IR Inten    --      7.7283                 7.1685                27.3257

                     64                     65                     66
                      A                      A                      A
 Frequencies --   1161.1628              1193.0862              1217.8563
 Red. masses --      1.0532                 1.9277                 1.5408
 Frc consts  --      0.8367                 1.6167                 1.3465
 IR Inten    --     60.5058                14.8924                12.5932

                     67                     68                     69
                      A                      A                      A
 Frequencies --   1236.7214              1244.2279              1260.0658
 Red. masses --      1.4342                 1.7890                 1.6776
 Frc consts  --      1.2924                 1.6317                 1.5694
 IR Inten    --      0.8686                13.6069                11.1350

                     70                     71                     72
                      A                      A                      A
 Frequencies --   1262.7770              1287.8087              1302.2241
 Red. masses --      1.6775                 1.6719                 1.3669
 Frc consts  --      1.5760                 1.6337                 1.3657
 IR Inten    --     12.0381                 3.9231                 5.1672

                     73                     74                     75
                      A                      A                      A
 Frequencies --   1317.8047              1330.9860              1340.1319
 Red. masses --      3.7719                 1.3502                 1.0861
 Frc consts  --      3.8593                 1.4093                 1.1492
 IR Inten    --      2.5901                 2.0273               152.9196

                     76                     77                     78
                      A                      A                      A
 Frequencies --   1363.0387              1370.0350              1382.0084
 Red. masses --      1.3415                 1.4626                 1.5088
 Frc consts  --      1.4684                 1.6175                 1.6978
 IR Inten    --      5.2535                 2.1933                 7.7306

                     79                     80                     81
                      A                      A                      A
 Frequencies --   1409.7812              1450.1282              1481.2751
 Red. masses --      1.6371                 1.2037                 2.1027
 Frc consts  --      1.9171                 1.4913                 2.7183
 IR Inten    --      6.0394                 1.6292                28.5551

                     82                     83                     84
                      A                      A                      A
 Frequencies --   1485.3573              1488.1137              1491.3771
 Red. masses --      1.0596                 1.0833                 1.0737
 Frc consts  --      1.3774                 1.4135                 1.4071
 IR Inten    --     11.2572                 5.8700                 5.5758

                     85                     86                     87
                      A                      A                      A
 Frequencies --   1506.2080              1521.0515              1532.5621
 Red. masses --      1.0921                 1.1668                 2.2061
 Frc consts  --      1.4598                 1.5905                 3.0529
 IR Inten    --     11.2327                 7.0580                 6.1444

                     88                     89                     90
                      A                      A                      A
 Frequencies --   1629.3922              1634.6777              1639.4483
 Red. masses --      1.0713                 1.0837                 1.0815
 Frc consts  --      1.6757                 1.7061                 1.7127
 IR Inten    --     59.5284                61.4813                71.8221

                     91                     92                     93
                      A                      A                      A
 Frequencies --   1664.2959              1676.1750              1684.5793
 Red. masses --      3.9653                 1.0435                 2.2994
 Frc consts  --      6.4712                 1.7274                 3.8445
 IR Inten    --      9.2271               146.9945                52.4531

                     94                     95                     96
                      A                      A                      A
 Frequencies --   1695.5519              1747.5463              2083.3710
 Red. masses --      1.6423                 1.0673                 1.1493
 Frc consts  --      2.7818                 1.9203                 2.9391
 IR Inten    --      6.4678                 2.3247              3229.7494

                     97                     98                     99
                      A                      A                      A
 Frequencies --   2674.5976              2972.7409              2988.9348
 Red. masses --      1.0777                 1.0815                 1.0676
 Frc consts  --      4.5424                 5.6308                 5.6196
 IR Inten    --   1997.1406               480.8913               362.0133

                    100                    101                    102
                      A                      A                      A
 Frequencies --   3001.0299              3030.8430              3083.8866
 Red. masses --      1.0592                 1.0698                 1.0700
 Frc consts  --      5.6205                 5.7898                 5.9958
 IR Inten    --     16.4537               516.2930              2092.6654

                    103                    104                    105
                      A                      A                      A
 Frequencies --   3090.4686              3101.0101              3108.5956
 Red. masses --      1.0634                 1.0661                 1.0881
 Frc consts  --      5.9843                 6.0405                 6.1952
 IR Inten    --     21.9531                28.2506                17.7903

                    106                    107                    108
                      A                      A                      A
 Frequencies --   3119.8098              3143.3856              3149.8592
 Red. masses --      1.0918                 1.1045                 1.1048
 Frc consts  --      6.2608                 6.4297                 6.4583
 IR Inten    --     54.7785                 0.1330                11.1423

                    109                    110                    111
                      A                      A                      A
 Frequencies --   3161.9037              3200.0216              3201.5976
 Red. masses --      1.1051                 1.0913                 1.0900
 Frc consts  --      6.5097                 6.5843                 6.5828
 IR Inten    --     23.1773                 1.1942                19.4793

                    112                    113                    114
                      A                      A                      A
 Frequencies --   3211.3260              3237.9803              3338.7026
 Red. masses --      1.0926                 1.0984                 1.0658
 Frc consts  --      6.6385                 6.7850                 6.9995
 IR Inten    --     10.2350                 2.4956              1168.0540

                    115                    116                    117
                      A                      A                      A
 Frequencies --   3626.4062              3868.2247              3871.9073
 Red. masses --      1.0667                 1.0451                 1.0454
 Frc consts  --      8.2649                 9.2137                 9.2338
 IR Inten    --    758.0241                39.3921                30.0776

                    118                    119                    120
                      A                      A                      A
 Frequencies --   3940.3599              3970.7063              3975.8729
 Red. masses --      1.0664                 1.0831                 1.0827
 Frc consts  --      9.7553                10.0609                10.0834
 IR Inten    --    123.8744               125.2290               109.0623

 - Thermochemistry -
 -------------------
 Temperature   298.150 Kelvin.  Pressure   1.00000 Atm.
 Atom     1 has atomic number  7 and mass  14.00307

 Molecular mass:   253.17635 amu.
 Principal axes and moments of inertia in atomic units:
                           1         2         3
     Eigenvalues --  5376.095275775.532448010.48036
           X            0.99550   0.09469   0.00322
           Y           -0.09471   0.99549   0.00551
           Z           -0.00268  -0.00579   0.99998
 This molecule is an asymmetric top.
 Rotational symmetry number  1.
 Warning -- assumption of classical behavior for rotation
           may cause significant error
 Rotational temperatures (Kelvin)      0.01611     0.01500     0.01081
 Rotational constants (GHZ):           0.33570     0.31248     0.22530
 Zero-point vibrational energy     958460.8 (Joules/Mol)
                                  229.07763 (Kcal/Mol)
 Warning -- explicit consideration of  35 degrees of freedom as
           vibrations may cause significant error
 Vibrational temperatures:     17.52    23.43    41.42    56.55    69.13
          (Kelvin)             78.82    84.86    99.68   117.15   132.40
                              136.93   145.53   171.70   206.59   210.17
                              254.30   291.10   309.37   323.60   368.95
                              374.07   382.66   386.57   396.02   403.46
                              416.51   461.09   505.70   552.18   566.16
                              584.92   603.96   677.68   786.47   835.83
                              897.48   920.19   948.14   972.86  1057.10
                             1072.48  1114.88  1124.97  1158.39  1202.26
                             1219.47  1247.65  1319.32  1339.97  1347.97
                             1371.64  1380.41  1408.91  1421.09  1450.17
                             1473.32  1517.00  1523.60  1545.97  1572.88
                             1607.93  1649.86  1658.03  1670.65  1716.58
                             1752.22  1779.37  1790.17  1812.95  1816.85
                             1852.87  1873.61  1896.03  1914.99  1928.15
                             1961.11  1971.17  1988.40  2028.36  2086.41
                             2131.22  2137.10  2141.06  2145.76  2167.10
                             2188.45  2205.02  2344.33  2351.94  2358.80
                             2394.55  2411.64  2423.73  2439.52  2514.33
                             2997.51  3848.15  4277.11  4300.41  4317.81
                             4360.71  4437.02  4446.50  4461.66  4472.58
                             4488.71  4522.63  4531.94  4549.27  4604.12
                             4606.38  4620.38  4658.73  4803.65  5217.59
                             5565.51  5570.81  5669.30  5712.96  5720.39

 Zero-point correction=                           0.365058 (Hartree/Particle)
 Thermal correction to Energy=                    0.389735
 Thermal correction to Enthalpy=                  0.390679
 Thermal correction to Gibbs Free Energy=         0.306913
 Sum of electronic and zero-point Energies=           -881.093196
 Sum of electronic and thermal Energies=              -881.068520
 Sum of electronic and thermal Enthalpies=            -881.067575
 Sum of electronic and thermal Free Energies=         -881.151341

                     E (Thermal)             CV                S
                      KCal/Mol        Cal/Mol-Kelvin    Cal/Mol-Kelvin
 Total                  244.562             85.514            176.301
 Electronic               0.000              0.000              0.000
 Translational            0.889              2.981             42.487
 Rotational               0.889              2.981             33.875
 Vibrational            242.785             79.552             99.939
 Vibration     1          0.593              1.987              7.620
 Vibration     2          0.593              1.986              7.042
 Vibration     3          0.593              1.984              5.911
 Vibration     4          0.594              1.981              5.294
 Vibration     5          0.595              1.978              4.896
 Vibration     6          0.596              1.976              4.637
 Vibration     7          0.596              1.974              4.491
 Vibration     8          0.598              1.969              4.174
 Vibration     9          0.600              1.962              3.856
 Vibration    10          0.602              1.955              3.617
 Vibration    11          0.603              1.953              3.551
 Vibration    12          0.604              1.948              3.432
 Vibration    13          0.609              1.933              3.111
 Vibration    14          0.616              1.910              2.756
 Vibration    15          0.617              1.907              2.723
 Vibration    16          0.628              1.871              2.363
 Vibration    17          0.639              1.837              2.112
 Vibration    18          0.645              1.818              2.001
 Vibration    19          0.650              1.803              1.919
 Vibration    20          0.666              1.752              1.686
 Vibration    21          0.668              1.746              1.662
 Vibration    22          0.672              1.736              1.622
 Vibration    23          0.673              1.731              1.605
 Vibration    24          0.677              1.719              1.563
 Vibration    25          0.680              1.710              1.531
 Vibration    26          0.686              1.693              1.477
 Vibration    27          0.706              1.634              1.308
 Vibration    28          0.728              1.572              1.160
 Vibration    29          0.753              1.505              1.024
 Vibration    30          0.761              1.484              0.987
 Vibration    31          0.771              1.456              0.939
 Vibration    32          0.782              1.427              0.893
 Vibration    33          0.828              1.314              0.735
 Vibration    34          0.902              1.147              0.551
 Vibration    35          0.938              1.073              0.484

                           ! Non-Optimized Parameters !
 Normal termination of Gaussian 16 at Thu May 18 03:32:10 2023.
