 Gaussian 16, Revision A.03,
 Gaussian 16:  ES64L-G16RevA.03 25-Dec-2016

 ----------------------------------------------------------------
 # wB97XD/aug-cc-pVDZ opt=(TS,CalcAll,MaxStep=5,NoEigenTest) freq
 ----------------------------------------------------------------

 ----
 blah
 ----
 Symbolic Z-matrix:
 Charge =  1 Multiplicity = 1

 SCF Done:  E(RwB97XD) =  -881.456417518     A.U. after   16 cycles
 SCF Done:  E(RwB97XD) =  -881.456430154     A.U. after   12 cycles
 SCF Done:  E(RwB97XD) =  -881.456405060     A.U. after   12 cycles
 SCF Done:  E(RwB97XD) =  -881.456430198     A.U. after   13 cycles
 SCF Done:  E(RwB97XD) =  -881.456432938     A.U. after   10 cycles
 SCF Done:  E(RwB97XD) =  -881.456432481     A.U. after   11 cycles
 SCF Done:  E(RwB97XD) =  -881.456432743     A.U. after    9 cycles
 Optimization completed.
    -- Stationary point found.
 ******    1 imaginary frequencies (negative Signs) ******
    1 imaginary frequencies ignored.
 Normal termination of Gaussian 16 at Mon Dec 26 20:20:30 2022.

 ----------------------------------------------------------------------
 #N Geom=AllCheck Guess=TCheck SCRF=Check GenChk RwB97XD/Aug-CC-pVDZ Fr
 eq
 ----------------------------------------------------------------------

 Structure from the checkpoint file:  "/gscratch/scrubbed/gds001/Gau-6744.chk"
 ----
 blah
 ----
 Charge =  1 Multiplicity = 1

                         Standard orientation:
 ---------------------------------------------------------------------
 Center     Atomic      Atomic             Coordinates (Angstroms)
 Number     Number       Type             X           Y           Z
 ---------------------------------------------------------------------
      1          7           0       -1.062058    2.348446   -0.562129
      2          6           0       -0.811809    3.581106   -0.100804
      3          6           0        0.417126    3.914476    0.449448
      4          6           0        1.401250    2.930386    0.537672
      5          6           0        1.147396    1.646146    0.058682
      6          6           0       -0.109643    1.414019   -0.495922
      7          6           0        2.167820    0.536321    0.132870
      8          6           0        2.639255   -0.004022   -1.231906
      9          6           0        2.946427   -1.498453   -0.974324
     10          6           0        2.636840   -1.702570    0.512013
     11          7           0        1.646735   -0.659710    0.813602
     12          6           0        1.426856   -0.471403    2.241109
     13          1           0       -1.622932    4.304147   -0.176180
     14          1           0        0.594892    4.923971    0.814256
     15          1           0        2.368329    3.163843    0.984451
     16          1           0       -0.373321    0.435930   -0.898463
     17          1           0        3.044291    0.918032    0.692472
     18          1           0        1.846906    0.109995   -1.980825
     19          1           0        3.508983    0.556602   -1.590276
     20          1           0        2.299551   -2.133779   -1.589318
     21          1           0        3.984373   -1.757723   -1.206031
     22          1           0        2.224912   -2.693306    0.738405
     23          1           0        3.543749   -1.556503    1.127712
     24          1           0        2.354865   -0.175920    2.764228
     25          1           0        1.062017   -1.407342    2.680187
     26          1           0        0.667914    0.303371    2.405677
     27          8           0       -3.217255    1.281722   -1.256045
     28          8           0       -0.594379   -1.828257   -0.356516
     29          8           0       -3.039059   -0.997009   -0.534587
     30          8           0        0.421264   -4.413728   -0.670141
     31          1           0       -3.438646    1.361091   -2.188733
     32          1           0       -0.334281   -2.753174   -0.501413
     33          1           0       -3.600905   -1.255277    0.226371
     34          1           0        0.117622   -5.157096   -0.141944
     35          1           0        0.620232   -4.780651   -1.535983
     36          1           0       -2.308054    1.841649   -1.010988
     37          1           0       -3.140578    0.168034   -0.911628
     38          1           0       -2.109964   -1.348670   -0.413400
     39          1           0        0.167525   -1.389622    0.099312
     40          8           0       -4.629669   -1.783603    1.505272
     41          1           0       -4.924489   -1.242427    2.242527
     42          1           0       -5.342044   -2.405363    1.332372
 ---------------------------------------------------------------------

 SCF Done:  E(RwB97XD) =  -881.456432743     A.U. after    1 cycles

 The electronic state is 1-A.
 Alpha  occ. eigenvalues --  -19.41169 -19.40917 -19.40204 -19.39745 -19.36321
 Alpha  occ. eigenvalues --  -14.60062 -14.56517 -10.46501 -10.46315 -10.44407
 Alpha  occ. eigenvalues --  -10.44214 -10.43804 -10.43258 -10.41939 -10.41890
 Alpha  occ. eigenvalues --  -10.39931 -10.39287  -1.27138  -1.25315  -1.24511
 Alpha  occ. eigenvalues --   -1.23618  -1.20453  -1.19122  -1.15800  -1.04288
 Alpha  occ. eigenvalues --   -1.00605  -0.98913  -0.93318  -0.88026  -0.86026
 Alpha  occ. eigenvalues --   -0.85059  -0.79064  -0.78264  -0.77753  -0.76924
 Alpha  occ. eigenvalues --   -0.76347  -0.75616  -0.74800  -0.73615  -0.71673
 Alpha  occ. eigenvalues --   -0.71046  -0.69364  -0.68056  -0.65455  -0.64745
 Alpha  occ. eigenvalues --   -0.64402  -0.63139  -0.62450  -0.61977  -0.61680
 Alpha  occ. eigenvalues --   -0.60938  -0.59642  -0.59318  -0.57385  -0.57189
 Alpha  occ. eigenvalues --   -0.55789  -0.55571  -0.54421  -0.54020  -0.53983
 Alpha  occ. eigenvalues --   -0.53900  -0.53080  -0.52501  -0.51023  -0.50641
 Alpha  occ. eigenvalues --   -0.49480  -0.49369  -0.45912  -0.42909
 Alpha virt. eigenvalues --   -0.09558  -0.07770  -0.06304  -0.05239  -0.04729
 Alpha virt. eigenvalues --   -0.04233  -0.03246  -0.02875  -0.02563  -0.02208
 Alpha virt. eigenvalues --   -0.01832  -0.01242  -0.00730  -0.00481  -0.00166

 Mulliken charges:
               1
     1  N   -0.700352
     2  C    0.486246
     3  C    0.418581
     4  C    1.306617
     5  C    0.450796
     6  C    1.216117
     7  C    1.255538
     8  C    1.155937
     9  C    0.763791
    10  C    1.476306
    11  N   -1.185876
    12  C    0.929315
    13  H   -0.640047
    14  H   -0.587616
    15  H   -0.898325
    16  H   -1.423898
    17  H   -0.841677
    18  H   -0.313151
    19  H   -0.517890
    20  H   -0.336460
    21  H   -0.319955
    22  H   -0.621022
    23  H   -0.558956
    24  H   -0.190511
    25  H   -0.242630
    26  H   -0.162733
    27  O   -0.559499
    28  O   -0.486152
    29  O   -0.479314
    30  O   -0.470196
    31  H    0.158623
    32  H    0.155416
    33  H    0.266598
    34  H    0.201942
    35  H    0.213400
    36  H    0.508206
    37  H    0.578831
    38  H    0.426662
    39  H    0.586573
    40  O   -0.321179
    41  H    0.152289
    42  H    0.149654
 Sum of Mulliken charges =   1.00000

 Dipole moment (field-independent basis, Debye):
    X=             -3.8955    Y=             -1.6224    Z=              0.5976  Tot=              4.2619
 Quadrupole moment (field-independent basis, Debye-Ang):
   XX=            -51.1896   YY=            -45.9698   ZZ=            -88.8069
   XY=              6.0547   XZ=             -4.8031   YZ=              1.5263

  Exact polarizability: 182.041 -10.270 197.194   8.067   6.204 142.219
 Approx polarizability: 193.139  -4.478 200.486  11.880   9.740 162.593

 ******    1 imaginary frequencies (negative Signs) ******

                      1                      2                      3
                      A                      A                      A
 Frequencies --   -626.1694                14.4765                21.5659
 Red. masses --      1.1906                 4.7185                 4.6164
 Frc consts  --      0.2750                 0.0006                 0.0013
 IR Inten    --   3019.6811                 0.4960                 2.0420

                      4                      5                      6
                      A                      A                      A
 Frequencies --     30.8643                46.2481                51.5532
 Red. masses --      5.0165                 4.2829                 3.7317
 Frc consts  --      0.0028                 0.0054                 0.0058
 IR Inten    --      2.2450                 0.6115                 0.6537

                      7                      8                      9
                      A                      A                      A
 Frequencies --     58.2915                62.6588                73.7380
 Red. masses --      3.8187                 3.3143                 1.2547
 Frc consts  --      0.0076                 0.0077                 0.0040
 IR Inten    --      1.9018                 3.2578                10.9246

                     10                     11                     12
                      A                      A                      A
 Frequencies --     79.2315                86.6430                94.7704
 Red. masses --      2.7088                 3.4402                 4.4493
 Frc consts  --      0.0100                 0.0152                 0.0235
 IR Inten    --      4.5863                 4.1197                 3.1250

                     13                     14                     15
                      A                      A                      A
 Frequencies --     99.8495               128.8586               133.8677
 Red. masses --      5.2352                 3.9733                 1.0917
 Frc consts  --      0.0308                 0.0389                 0.0115
 IR Inten    --      2.6795                 5.0200                17.6008

                     16                     17                     18
                      A                      A                      A
 Frequencies --    146.2187               174.6718               212.3784
 Red. masses --      4.1041                 2.0007                 1.8955
 Frc consts  --      0.0517                 0.0360                 0.0504
 IR Inten    --     26.4832                 0.5013                61.1582

                     19                     20                     21
                      A                      A                      A
 Frequencies --    214.5474               219.9495               229.2019
 Red. masses --      3.0778                 1.7405                 1.2106
 Frc consts  --      0.0835                 0.0496                 0.0375
 IR Inten    --     16.9553                78.7535                53.7040

                     22                     23                     24
                      A                      A                      A
 Frequencies --    249.3024               252.8248               262.6020
 Red. masses --      1.3224                 2.6728                 1.3383
 Frc consts  --      0.0484                 0.1007                 0.0544
 IR Inten    --     15.0739                56.8762               196.1514

                     25                     26                     27
                      A                      A                      A
 Frequencies --    266.2029               289.8484               316.9032
 Red. masses --      2.5940                 1.1513                 4.0701
 Frc consts  --      0.1083                 0.0570                 0.2408
 IR Inten    --      8.6044                17.2532                 2.5873

                     28                     29                     30
                      A                      A                      A
 Frequencies --    335.7449               399.1905               410.0443
 Red. masses --      4.5831                 2.2010                 2.2089
 Frc consts  --      0.3044                 0.2066                 0.2188
 IR Inten    --     23.9677                84.5176                38.4260

                     31                     32                     33
                      A                      A                      A
 Frequencies --    417.5602               430.5629               474.5283
 Red. masses --      3.1629                 2.3373                 2.0743
 Frc consts  --      0.3249                 0.2553                 0.2752
 IR Inten    --      5.5725                27.1581               404.2014

                     34                     35                     36
                      A                      A                      A
 Frequencies --    549.8648               583.3567               631.2153
 Red. masses --      3.8571                 3.0233                 3.7150
 Frc consts  --      0.6871                 0.6062                 0.8721
 IR Inten    --      3.0368                 1.1075                18.3770

                     37                     38                     39
                      A                      A                      A
 Frequencies --    642.0571               672.1366               691.7132
 Red. masses --      2.6845                 5.0640                 2.9227
 Frc consts  --      0.6520                 1.3479                 0.8239
 IR Inten    --      3.1280                 8.9292                13.9296

                     40                     41                     42
                      A                      A                      A
 Frequencies --    709.0135               711.2306               733.2520
 Red. masses --      1.1715                 1.0735                 1.6108
 Frc consts  --      0.3470                 0.3199                 0.5103
 IR Inten    --     36.1615                53.2303               154.7098

                     43                     44                     45
                      A                      A                      A
 Frequencies --    740.6683               745.8076               783.7543
 Red. masses --      1.1943                 1.3727                 1.4744
 Frc consts  --      0.3860                 0.4499                 0.5336
 IR Inten    --     17.0891               275.3329                13.4890

                     46                     47                     48
                      A                      A                      A
 Frequencies --    840.0307               850.3116               864.2675
 Red. masses --      1.5987                 2.1641                 1.0701
 Frc consts  --      0.6647                 0.9219                 0.4709
 IR Inten    --     42.4034                49.7640                58.6519

                     49                     50                     51
                      A                      A                      A
 Frequencies --    873.7095               936.4492               940.5196
 Red. masses --      1.1096                 1.6217                 3.3372
 Frc consts  --      0.4991                 0.8379                 1.7393
 IR Inten    --    224.5013                26.8757                 1.7890

                     52                     53                     54
                      A                      A                      A
 Frequencies --    959.1486               983.3114               985.1159
 Red. masses --      2.4536                 1.3578                 1.5226
 Frc consts  --      1.3299                 0.7735                 0.8706
 IR Inten    --     21.9390                42.7190                 2.8019

                     55                     56                     57
                      A                      A                      A
 Frequencies --   1010.5312              1025.5037              1039.1518
 Red. masses --      1.8198                 1.3272                 1.1186
 Frc consts  --      1.0949                 0.8224                 0.7117
 IR Inten    --     26.6005                35.3033               114.1274

                     58                     59                     60
                      A                      A                      A
 Frequencies --   1055.7743              1060.2247              1074.7862
 Red. masses --      4.2162                 2.5627                 1.8085
 Frc consts  --      2.7689                 1.6972                 1.2309
 IR Inten    --      9.8240                 6.2023                26.3701

                     61                     62                     63
                      A                      A                      A
 Frequencies --   1104.0973              1119.8319              1142.7155
 Red. masses --      2.1015                 2.2314                 1.2790
 Frc consts  --      1.5093                 1.6487                 0.9840
 IR Inten    --     25.1920                17.0641                 4.4821

                     64                     65                     66
                      A                      A                      A
 Frequencies --   1154.0044              1199.6224              1218.2966
 Red. masses --      1.4180                 1.8731                 1.4803
 Frc consts  --      1.1126                 1.5882                 1.2945
 IR Inten    --     21.6868                19.8928                23.3661

                     67                     68                     69
                      A                      A                      A
 Frequencies --   1235.5143              1243.2364              1259.2376
 Red. masses --      1.4021                 1.7804                 1.7437
 Frc consts  --      1.2610                 1.6213                 1.6291
 IR Inten    --      5.6287                 8.7762                15.7073

                     70                     71                     72
                      A                      A                      A
 Frequencies --   1264.1933              1291.4026              1300.0595
 Red. masses --      1.7633                 1.6530                 1.3791
 Frc consts  --      1.6603                 1.6242                 1.3733
 IR Inten    --     18.9905                 4.1354                17.0115

                     73                     74                     75
                      A                      A                      A
 Frequencies --   1303.9761              1327.3936              1340.6627
 Red. masses --      1.5161                 1.3464                 1.9150
 Frc consts  --      1.5189                 1.3978                 2.0279
 IR Inten    --     73.1412                 2.8720                32.7219

                     76                     77                     78
                      A                      A                      A
 Frequencies --   1360.1489              1376.3762              1382.6502
 Red. masses --      1.3871                 1.4787                 1.5266
 Frc consts  --      1.5120                 1.6504                 1.7195
 IR Inten    --      5.4807                 1.0660                 4.3279

                     79                     80                     81
                      A                      A                      A
 Frequencies --   1411.7359              1448.9330              1482.2202
 Red. masses --      1.5958                 1.2086                 1.1776
 Frc consts  --      1.8739                 1.4950                 1.5243
 IR Inten    --      2.0407                 1.0804                39.7694

                     82                     83                     84
                      A                      A                      A
 Frequencies --   1484.6853              1487.1510              1490.2915
 Red. masses --      1.2221                 1.2712                 1.0975
 Frc consts  --      1.5872                 1.6564                 1.4362
 IR Inten    --     71.8144                43.0011                18.4470

                     85                     86                     87
                      A                      A                      A
 Frequencies --   1506.2094              1510.6422              1521.4176
 Red. masses --      1.0951                 1.1001                 1.1230
 Frc consts  --      1.4638                 1.4792                 1.5316
 IR Inten    --     24.7371                95.0379                 8.2956

                     88                     89                     90
                      A                      A                      A
 Frequencies --   1529.9173              1539.9662              1634.0733
 Red. masses --      1.3147                 1.6834                 1.0874
 Frc consts  --      1.8131                 2.3522                 1.7107
 IR Inten    --    242.0505                28.6513               105.2095

                     91                     92                     93
                      A                      A                      A
 Frequencies --   1636.7627              1664.7913              1691.6148
 Red. masses --      1.0844                 3.5507                 4.1586
 Frc consts  --      1.7117                 5.7981                 7.0113
 IR Inten    --     76.1513               359.6510               328.3316

                     94                     95                     96
                      A                      A                      A
 Frequencies --   1707.4966              1713.3177              1735.5462
 Red. masses --      1.1908                 1.1634                 1.0866
 Frc consts  --      2.0455                 2.0121                 1.9284
 IR Inten    --   1256.2602               319.3004               328.0669

                     97                     98                     99
                      A                      A                      A
 Frequencies --   1763.5869              2969.8119              2989.7877
 Red. masses --      1.1098                 1.0836                 1.0515
 Frc consts  --      2.0338                 5.6311                 5.5380
 IR Inten    --    857.6906                63.9373                57.2902

                    100                    101                    102
                      A                      A                      A
 Frequencies --   2993.3360              3089.4015              3100.8790
 Red. masses --      1.0705                 1.0630                 1.0650
 Frc consts  --      5.6515                 5.9775                 6.0335
 IR Inten    --    131.5457                15.7392                49.5519

                    103                    104                    105
                      A                      A                      A
 Frequencies --   3105.2198              3109.7034              3119.6164
 Red. masses --      1.0844                 1.0730                 1.0925
 Frc consts  --      6.1608                 6.1137                 6.2645
 IR Inten    --      3.6348              2159.6172                13.7832

                    106                    107                    108
                      A                      A                      A
 Frequencies --   3142.3521              3149.0111              3160.2849
 Red. masses --      1.1047                 1.1041                 1.1054
 Frc consts  --      6.4272                 6.4504                 6.5049
 IR Inten    --      0.6239                17.2908                14.0305

                    109                    110                    111
                      A                      A                      A
 Frequencies --   3205.7724              3212.7882              3221.7254
 Red. masses --      1.0916                 1.0929                 1.0922
 Frc consts  --      6.6099                 6.6468                 6.6793
 IR Inten    --      1.1646                 4.5057                 1.3523

                    112                    113                    114
                      A                      A                      A
 Frequencies --   3242.1014              3304.3795              3535.6017
 Red. masses --      1.0992                 1.0692                 1.0677
 Frc consts  --      6.8077                 6.8787                 7.8637
 IR Inten    --      1.0758               690.6804              1021.2222

                    115                    116                    117
                      A                      A                      A
 Frequencies --   3697.6550              3873.5450              3874.9845
 Red. masses --      1.0668                 1.0455                 1.0452
 Frc consts  --      8.5941                 9.2424                 9.2466
 IR Inten    --    671.9537                24.6521                29.5084

                    118                    119                    120
                      A                      A                      A
 Frequencies --   3908.2027              3977.9558              3979.7949
 Red. masses --      1.0658                 1.0825                 1.0830
 Frc consts  --      9.5915                10.0926                10.1061
 IR Inten    --    118.9689               103.0174               115.1139

 - Thermochemistry -
 -------------------
 Temperature   298.150 Kelvin.  Pressure   1.00000 Atm.
 Atom     1 has atomic number  7 and mass  14.00307

 Molecular mass:   253.17635 amu.
 Principal axes and moments of inertia in atomic units:
                           1         2         3
     Eigenvalues --  5353.918735508.234219121.58553
           X            0.99775  -0.06708  -0.00163
           Y            0.06709   0.99774   0.00222
           Z            0.00147  -0.00233   1.00000
 This molecule is an asymmetric top.
 Rotational symmetry number  1.
 Warning -- assumption of classical behavior for rotation
           may cause significant error
 Rotational temperatures (Kelvin)      0.01618     0.01572     0.00950
 Rotational constants (GHZ):           0.33709     0.32764     0.19785
    1 imaginary frequencies ignored.
 Zero-point vibrational energy     948193.0 (Joules/Mol)
                                  226.62357 (Kcal/Mol)
 Warning -- explicit consideration of  34 degrees of freedom as
           vibrations may cause significant error
 Vibrational temperatures:     20.83    31.03    44.41    66.54    74.17
          (Kelvin)             83.87    90.15   106.09   114.00   124.66
                              136.35   143.66   185.40   192.61   210.38
                              251.31   305.57   308.69   316.46   329.77
                              358.69   363.76   377.83   383.01   417.03
                              455.95   483.06   574.35   589.96   600.78
                              619.48   682.74   791.13   839.32   908.18
                              923.78   967.05   995.22  1020.11  1023.30
                             1054.99  1065.66  1073.05  1127.65  1208.62
                             1223.41  1243.49  1257.07  1347.34  1353.20
                             1380.00  1414.77  1417.36  1453.93  1475.47
                             1495.11  1519.02  1525.43  1546.38  1588.55
                             1611.19  1644.11  1660.35  1725.99  1752.86
                             1777.63  1788.74  1811.76  1818.89  1858.04
                             1870.50  1876.13  1909.82  1928.91  1956.95
                             1980.30  1989.33  2031.17  2084.69  2132.58
                             2136.13  2139.68  2144.20  2167.10  2173.48
                             2188.98  2201.21  2215.67  2351.07  2354.94
                             2395.26  2433.86  2456.71  2465.08  2497.06
                             2537.41  4272.90  4301.64  4306.74  4444.96
                             4461.47  4467.72  4474.17  4488.43  4521.14
                             4530.72  4546.95  4612.39  4622.49  4635.34
                             4664.66  4754.27  5086.94  5320.10  5573.17
                             5575.24  5623.03  5723.39  5726.04

 Zero-point correction=                           0.361148 (Hartree/Particle)
 Thermal correction to Energy=                    0.385494
 Thermal correction to Enthalpy=                  0.386438
 Thermal correction to Gibbs Free Energy=         0.303864
 Sum of electronic and zero-point Energies=           -881.095285
 Sum of electronic and thermal Energies=              -881.070938
 Sum of electronic and thermal Enthalpies=            -881.069994
 Sum of electronic and thermal Free Energies=         -881.152569

                     E (Thermal)             CV                S
                      KCal/Mol        Cal/Mol-Kelvin    Cal/Mol-Kelvin
 Total                  241.901             84.574            173.793
 Electronic               0.000              0.000              0.000
 Translational            0.889              2.981             42.487
 Rotational               0.889              2.981             33.952
 Vibrational            240.124             78.612             97.354
 Vibration     1          0.593              1.986              7.276
 Vibration     2          0.593              1.985              6.485
 Vibration     3          0.594              1.984              5.773
 Vibration     4          0.595              1.979              4.972
 Vibration     5          0.596              1.977              4.757
 Vibration     6          0.596              1.974              4.514
 Vibration     7          0.597              1.972              4.372
 Vibration     8          0.599              1.966              4.051
 Vibration     9          0.600              1.963              3.910
 Vibration    10          0.601              1.959              3.734
 Vibration    11          0.603              1.953              3.559
 Vibration    12          0.604              1.949              3.457
 Vibration    13          0.611              1.924              2.963
 Vibration    14          0.613              1.920              2.890
 Vibration    15          0.617              1.907              2.721
 Vibration    16          0.627              1.874              2.385
 Vibration    17          0.643              1.822              2.023
 Vibration    18          0.644              1.819              2.005
 Vibration    19          0.647              1.811              1.960
 Vibration    20          0.652              1.796              1.885
 Vibration    21          0.662              1.764              1.736
 Vibration    22          0.664              1.758              1.711
 Vibration    23          0.670              1.741              1.644
 Vibration    24          0.672              1.735              1.621
 Vibration    25          0.686              1.693              1.475
 Vibration    26          0.704              1.641              1.326
 Vibration    27          0.717              1.604              1.232
 Vibration    28          0.765              1.472              0.966
 Vibration    29          0.774              1.448              0.926
 Vibration    30          0.781              1.432              0.900
 Vibration    31          0.792              1.404              0.857
 Vibration    32          0.831              1.307              0.725
 Vibration    33          0.905              1.140              0.544
 Vibration    34          0.940              1.067              0.479

 Optimization completed.
    -- Stationary point found.
 Normal termination of Gaussian 16 at Mon Dec 26 21:47:19 2022.
