 Gaussian 16, Revision A.03,
 Gaussian 16:  ES64L-G16RevA.03 25-Dec-2016

 -----------------------------------------
 # wB97XD/aug-cc-pVDZ opt=(MaxStep=1) freq
 -----------------------------------------

 ----
 blah
 ----
 Symbolic Z-matrix:
 Charge =  1 Multiplicity = 1

 SCF Done:  E(RwB97XD) =  -881.458590034     A.U. after   16 cycles
 SCF Done:  E(RwB97XD) =  -881.458568287     A.U. after   11 cycles
 SCF Done:  E(RwB97XD) =  -881.458320312     A.U. after   13 cycles
 SCF Done:  E(RwB97XD) =  -881.458293211     A.U. after   11 cycles
 SCF Done:  E(RwB97XD) =  -881.458629281     A.U. after    8 cycles
 SCF Done:  E(RwB97XD) =  -881.458360334     A.U. after   13 cycles
 SCF Done:  E(RwB97XD) =  -881.458793763     A.U. after   12 cycles
 SCF Done:  E(RwB97XD) =  -881.458915582     A.U. after   11 cycles
 SCF Done:  E(RwB97XD) =  -881.458805497     A.U. after   14 cycles
 SCF Done:  E(RwB97XD) =  -881.459095277     A.U. after   13 cycles
 SCF Done:  E(RwB97XD) =  -881.459394820     A.U. after   10 cycles
 SCF Done:  E(RwB97XD) =  -881.459395109     A.U. after   10 cycles
 SCF Done:  E(RwB97XD) =  -881.459395416     A.U. after   10 cycles
 SCF Done:  E(RwB97XD) =  -881.459395494     A.U. after    9 cycles
 SCF Done:  E(RwB97XD) =  -881.459395535     A.U. after   10 cycles
 SCF Done:  E(RwB97XD) =  -881.459395563     A.U. after    8 cycles
 SCF Done:  E(RwB97XD) =  -881.459395589     A.U. after    8 cycles
 SCF Done:  E(RwB97XD) =  -881.459395604     A.U. after    8 cycles
 SCF Done:  E(RwB97XD) =  -881.459395609     A.U. after    7 cycles
 Optimization completed.
    -- Stationary point found.
 Normal termination of Gaussian 16 at Sat Mar 11 17:54:37 2023.

 ----------------------------------------------------------------------
 #N Geom=AllCheck Guess=TCheck SCRF=Check GenChk RwB97XD/Aug-CC-pVDZ Fr
 eq
 ----------------------------------------------------------------------

 Structure from the checkpoint file:  "/gscratch/scrubbed/gds001/Gau-11776.chk"
 ----
 blah
 ----
 Charge =  1 Multiplicity = 1

                         Standard orientation:
 ---------------------------------------------------------------------
 Center     Atomic      Atomic             Coordinates (Angstroms)
 Number     Number       Type             X           Y           Z
 ---------------------------------------------------------------------
      1          7           0       -2.446729    0.891033   -0.713175
      2          6           0       -3.145696    1.904660   -0.187893
      3          6           0       -2.535077    2.969749    0.463166
      4          6           0       -1.147270    2.970368    0.586293
      5          6           0       -0.405508    1.923296    0.041972
      6          6           0       -1.115944    0.913736   -0.608047
      7          6           0        1.098477    1.865121    0.150284
      8          6           0        1.858081    1.866532   -1.189264
      9          6           0        3.149437    1.062438   -0.905911
     10          6           0        3.024754    0.639820    0.562276
     11          7           0        1.574454    0.633047    0.808743
     12          6           0        1.233832    0.559832    2.224533
     13          1           0       -4.229390    1.854862   -0.293951
     14          1           0       -3.137722    3.777595    0.873764
     15          1           0       -0.642772    3.785465    1.106696
     16          1           0       -0.589591    0.076146   -1.067704
     17          1           0        1.428983    2.734382    0.750972
     18          1           0        1.256860    1.383034   -1.967777
     19          1           0        2.055538    2.891207   -1.520656
     20          1           0        3.204284    0.181719   -1.555521
     21          1           0        4.055429    1.653295   -1.074051
     22          1           0        3.449385   -0.349841    0.769595
     23          1           0        3.517449    1.372101    1.227147
     24          1           0        1.643862    1.417105    2.787772
     25          1           0        1.641191   -0.364708    2.650529
     26          1           0        0.143997    0.546743    2.346563
     27          8           0       -3.041874   -1.581850   -1.510633
     28          8           0        0.928615   -1.714863   -0.373310
     29          8           0       -1.200314   -2.941972   -0.481398
     30          8           0        3.446366   -2.796649   -0.701278
     31          1           0       -3.313966   -1.674841   -2.426760
     32          1           0        1.780467   -2.168352   -0.506396
     33          1           0       -1.524866   -3.289119    0.388185
     34          1           0        3.797000   -3.532190   -0.191582
     35          1           0        3.847548   -2.872302   -1.571550
     36          1           0       -2.960944   -0.603952   -1.302596
     37          1           0       -1.939434   -2.397354   -0.946469
     38          1           0       -0.291549   -2.416758   -0.394593
     39          1           0        1.108092   -0.834275    0.078508
     40          8           0       -2.056221   -3.898661    1.829935
     41          1           0       -2.858416   -3.573199    2.248716
     42          1           0       -2.038601   -4.846676    1.991208
 ---------------------------------------------------------------------

 SCF Done:  E(RwB97XD) =  -881.459395609     A.U. after    1 cycles

 The electronic state is 1-A.
 Alpha  occ. eigenvalues --  -19.43604 -19.42610 -19.41082 -19.38963 -19.38005
 Alpha  occ. eigenvalues --  -14.57691 -14.57041 -10.44988 -10.44911 -10.44276
 Alpha  occ. eigenvalues --  -10.43075 -10.42796 -10.42323 -10.42209 -10.42031
 Alpha  occ. eigenvalues --  -10.39889 -10.39536  -1.29813  -1.26760  -1.25428
 Alpha  occ. eigenvalues --   -1.23207  -1.22157  -1.17243  -1.15951  -1.03174
 Alpha  occ. eigenvalues --   -0.99722  -0.98674  -0.92873  -0.88240  -0.84815
 Alpha  occ. eigenvalues --   -0.83734  -0.79769  -0.79208  -0.78486  -0.78242
 Alpha  occ. eigenvalues --   -0.77265  -0.75707  -0.75522  -0.73946  -0.71971
 Alpha  occ. eigenvalues --   -0.70112  -0.69167  -0.68005  -0.65488  -0.64681
 Alpha  occ. eigenvalues --   -0.64175  -0.63376  -0.62411  -0.61873  -0.61176
 Alpha  occ. eigenvalues --   -0.60449  -0.60267  -0.58754  -0.58357  -0.57912
 Alpha  occ. eigenvalues --   -0.57391  -0.55644  -0.55618  -0.54521  -0.53953
 Alpha  occ. eigenvalues --   -0.53703  -0.53054  -0.52702  -0.52384  -0.50967
 Alpha  occ. eigenvalues --   -0.48147  -0.47364  -0.44862  -0.43557
 Alpha virt. eigenvalues --   -0.08084  -0.06845  -0.06740  -0.05769  -0.04438
 Alpha virt. eigenvalues --   -0.04126  -0.03160  -0.02966  -0.02641  -0.02208
 Alpha virt. eigenvalues --   -0.01849  -0.01336  -0.00695  -0.00522  -0.00200

 Mulliken charges:
               1
     1  N   -0.610855
     2  C    0.281844
     3  C    0.518465
     4  C    1.254292
     5  C    0.522452
     6  C    1.063923
     7  C    1.309482
     8  C    1.094739
     9  C    0.790033
    10  C    1.466205
    11  N   -1.351364
    12  C    0.972006
    13  H   -0.608081
    14  H   -0.600490
    15  H   -0.910491
    16  H   -1.368325
    17  H   -0.831365
    18  H   -0.303840
    19  H   -0.525573
    20  H   -0.341241
    21  H   -0.309712
    22  H   -0.642111
    23  H   -0.567818
    24  H   -0.180776
    25  H   -0.249528
    26  H   -0.143000
    27  O   -0.499912
    28  O   -0.559322
    29  O   -0.401269
    30  O   -0.472574
    31  H    0.146352
    32  H    0.140959
    33  H    0.361657
    34  H    0.201001
    35  H    0.214118
    36  H    0.373838
    37  H    0.457939
    38  H    0.620087
    39  H    0.693439
    40  O   -0.324112
    41  H    0.160487
    42  H    0.158441
 Sum of Mulliken charges =   1.00000

 Dipole moment (field-independent basis, Debye):
    X=             -0.3636    Y=             -5.2809    Z=              1.3682  Tot=              5.4673
 Quadrupole moment (field-independent basis, Debye-Ang):
   XX=            -55.3899   YY=            -47.9567   ZZ=            -87.3089
   XY=             -2.4563   XZ=             -7.5738   YZ=             -3.2876

  Exact polarizability: 200.447  -7.556 174.330   1.445  10.812 144.815
 Approx polarizability: 201.892  -4.071 188.750   1.886  16.422 165.333

                      1                      2                      3
                      A                      A                      A
 Frequencies --     13.6774                20.7513                30.6140
 Red. masses --      4.7772                 4.5495                 4.9705
 Frc consts  --      0.0005                 0.0012                 0.0027
 IR Inten    --      0.8917                 0.7104                 4.6103

                      4                      5                      6
                      A                      A                      A
 Frequencies --     47.7353                53.9272                60.6352
 Red. masses --      4.0747                 3.4536                 3.8059
 Frc consts  --      0.0055                 0.0059                 0.0082
 IR Inten    --      0.9444                 0.2881                 0.5565

                      7                      8                      9
                      A                      A                      A
 Frequencies --     67.0017                76.9388                81.6722
 Red. masses --      4.2905                 2.2944                 3.1878
 Frc consts  --      0.0113                 0.0080                 0.0125
 IR Inten    --      2.8076                 2.5683                 0.3464

                     10                     11                     12
                      A                      A                      A
 Frequencies --     87.0830                96.2090               101.5219
 Red. masses --      1.7378                 2.5707                 4.5805
 Frc consts  --      0.0078                 0.0140                 0.0278
 IR Inten    --     13.8510                 8.5246                 0.4141

                     13                     14                     15
                      A                      A                      A
 Frequencies --    117.1000               127.9811               143.5924
 Red. masses --      3.9979                 1.1138                 4.3020
 Frc consts  --      0.0323                 0.0107                 0.0523
 IR Inten    --      1.1625                16.0615                14.5255

                     16                     17                     18
                      A                      A                      A
 Frequencies --    177.0307               203.9489               219.6634
 Red. masses --      2.0066                 3.9670                 3.8934
 Frc consts  --      0.0371                 0.0972                 0.1107
 IR Inten    --      0.9781                10.0494                 3.6816

                     19                     20                     21
                      A                      A                      A
 Frequencies --    229.0265               246.4648               250.5258
 Red. masses --      3.9169                 1.1615                 1.1864
 Frc consts  --      0.1211                 0.0416                 0.0439
 IR Inten    --     27.6331                 9.8030                 0.2829

                     22                     23                     24
                      A                      A                      A
 Frequencies --    259.3165               266.4444               273.2798
 Red. masses --      1.2114                 2.5992                 1.7113
 Frc consts  --      0.0480                 0.1087                 0.0753
 IR Inten    --    146.6647                 1.6290               152.8303

                     25                     26                     27
                      A                      A                      A
 Frequencies --    286.7931               306.9212               320.5747
 Red. masses --      2.1364                 1.1844                 3.4174
 Frc consts  --      0.1035                 0.0657                 0.2069
 IR Inten    --    129.1097                78.8020                15.0602

                     28                     29                     30
                      A                      A                      A
 Frequencies --    346.1777               380.0017               392.5801
 Red. masses --      1.3976                 3.0486                 3.1953
 Frc consts  --      0.0987                 0.2594                 0.2901
 IR Inten    --     19.7028               153.8631                78.2218

                     31                     32                     33
                      A                      A                      A
 Frequencies --    406.1853               421.6668               465.9407
 Red. masses --      2.9936                 3.1493                 4.2798
 Frc consts  --      0.2910                 0.3299                 0.5474
 IR Inten    --      2.2690                 2.5109                61.0223

                     34                     35                     36
                      A                      A                      A
 Frequencies --    543.5690               577.9275               602.9411
 Red. masses --      3.2376                 2.5635                 1.2958
 Frc consts  --      0.5636                 0.5045                 0.2776
 IR Inten    --     10.8589                 4.3136                36.1230

                     37                     38                     39
                      A                      A                      A
 Frequencies --    640.5568               658.8150               677.9147
 Red. masses --      3.1716                 5.9061                 5.1952
 Frc consts  --      0.7667                 1.5103                 1.4067
 IR Inten    --      0.9740                15.2859                 1.0881

                     40                     41                     42
                      A                      A                      A
 Frequencies --    738.0070               742.3100               776.0713
 Red. masses --      1.6231                 1.1649                 1.0270
 Frc consts  --      0.5208                 0.3782                 0.3645
 IR Inten    --      3.9057               112.6407                27.7496

                     43                     44                     45
                      A                      A                      A
 Frequencies --    782.1346               798.0592               837.3226
 Red. masses --      1.4630                 1.0552                 1.6517
 Frc consts  --      0.5273                 0.3960                 0.6823
 IR Inten    --     13.9371                24.1950                27.0861

                     46                     47                     48
                      A                      A                      A
 Frequencies --    842.8761               900.1387               926.5011
 Red. masses --      2.3262                 1.0505                 1.7038
 Frc consts  --      0.9737                 0.5015                 0.8617
 IR Inten    --     13.7335                66.4189                22.3266

                     49                     50                     51
                      A                      A                      A
 Frequencies --    933.7592               953.5068               973.5385
 Red. masses --      2.6440                 2.3092                 1.2675
 Frc consts  --      1.3582                 1.2370                 0.7078
 IR Inten    --      0.6039                 5.5835                19.4586

                     52                     53                     54
                      A                      A                      A
 Frequencies --    984.1796               986.9567               992.7404
 Red. masses --      1.2179                 1.3455                 1.2440
 Frc consts  --      0.6951                 0.7722                 0.7223
 IR Inten    --     30.3973                14.6921                14.8414

                     55                     56                     57
                      A                      A                      A
 Frequencies --   1010.3612              1026.9733              1053.9409
 Red. masses --      1.8331                 1.4072                 5.1075
 Frc consts  --      1.1025                 0.8744                 3.3426
 IR Inten    --      7.5865                 0.1243                 3.8407

                     58                     59                     60
                      A                      A                      A
 Frequencies --   1057.9321              1072.9141              1096.0988
 Red. masses --      2.3366                 1.8558                 1.9959
 Frc consts  --      1.5408                 1.2586                 1.4128
 IR Inten    --      6.1609                14.3848                15.3021

                     61                     62                     63
                      A                      A                      A
 Frequencies --   1119.5189              1144.6844              1153.1243
 Red. masses --      2.2973                 1.2750                 1.3994
 Frc consts  --      1.6964                 0.9843                 1.0963
 IR Inten    --      3.5502                 1.7851                16.6171

                     64                     65                     66
                      A                      A                      A
 Frequencies --   1164.8130              1198.7053              1218.6630
 Red. masses --      1.0592                 1.8798                 1.5303
 Frc consts  --      0.8467                 1.5914                 1.3390
 IR Inten    --     62.1080                16.7761                14.3385

                     67                     68                     69
                      A                      A                      A
 Frequencies --   1237.0171              1242.2060              1258.8106
 Red. masses --      1.4622                 1.7691                 1.6760
 Frc consts  --      1.3183                 1.6084                 1.5647
 IR Inten    --      2.7751                 5.8909                15.6857

                     70                     71                     72
                      A                      A                      A
 Frequencies --   1263.7492              1290.3569              1298.6890
 Red. masses --      1.7355                 1.6200                 1.3501
 Frc consts  --      1.6331                 1.5892                 1.3416
 IR Inten    --     15.2831                 3.6492                 4.7196

                     73                     74                     75
                      A                      A                      A
 Frequencies --   1316.9375              1318.4565              1327.7851
 Red. masses --      1.6091                 1.7818                 1.3775
 Frc consts  --      1.6443                 1.8249                 1.4309
 IR Inten    --    109.1685                68.0215                 8.6152

                     76                     77                     78
                      A                      A                      A
 Frequencies --   1363.1058              1374.1990              1381.2668
 Red. masses --      1.3433                 1.4573                 1.5051
 Frc consts  --      1.4706                 1.6214                 1.6918
 IR Inten    --      4.9698                 2.6164                 5.9159

                     79                     80                     81
                      A                      A                      A
 Frequencies --   1411.3924              1448.2800              1481.9306
 Red. masses --      1.6150                 1.2066                 1.7566
 Frc consts  --      1.8955                 1.4911                 2.2728
 IR Inten    --      4.5837                 1.8386                27.9370

                     82                     83                     84
                      A                      A                      A
 Frequencies --   1484.1649              1486.8708              1490.4153
 Red. masses --      1.1243                 1.1226                 1.0811
 Frc consts  --      1.4591                 1.4623                 1.4149
 IR Inten    --     15.6201                 2.7620                 5.5636

                     85                     86                     87
                      A                      A                      A
 Frequencies --   1505.7437              1520.3312              1534.0833
 Red. masses --      1.0932                 1.1580                 2.2333
 Frc consts  --      1.4603                 1.5769                 3.0966
 IR Inten    --     11.7569                 8.0319                10.6727

                     88                     89                     90
                      A                      A                      A
 Frequencies --   1623.2535              1631.9163              1637.3233
 Red. masses --      1.0593                 1.0830                 1.0852
 Frc consts  --      1.6446                 1.6993                 1.7141
 IR Inten    --      2.7047                44.2599                86.5236

                     91                     92                     93
                      A                      A                      A
 Frequencies --   1652.2464              1666.8366              1687.2636
 Red. masses --      1.0922                 4.7828                 5.3422
 Frc consts  --      1.7568                 7.8292                 8.9607
 IR Inten    --    132.4960                 7.0679                18.5398

                     94                     95                     96
                      A                      A                      A
 Frequencies --   1710.3642              1730.8881              2194.8741
 Red. masses --      1.0630                 1.0652                 1.1427
 Frc consts  --      1.8322                 1.8803                 3.2435
 IR Inten    --     11.1582                 4.3157              3249.3112

                     97                     98                     99
                      A                      A                      A
 Frequencies --   2639.6596              2965.5415              2983.9817
 Red. masses --      1.0749                 1.0779                 1.0740
 Frc consts  --      4.4129                 5.5854                 5.6343
 IR Inten    --   2101.1134               858.7965               193.3664

                    100                    101                    102
                      A                      A                      A
 Frequencies --   3000.9020              3020.9926              3076.3617
 Red. masses --      1.0604                 1.0669                 1.0703
 Frc consts  --      5.6263                 5.7366                 5.9678
 IR Inten    --     13.7059               250.5133              2124.6842

                    103                    104                    105
                      A                      A                      A
 Frequencies --   3093.9463              3104.4047              3108.0562
 Red. masses --      1.0626                 1.0659                 1.0871
 Frc consts  --      5.9931                 6.0525                 6.1872
 IR Inten    --     18.0541                29.9193                23.4468

                    106                    107                    108
                      A                      A                      A
 Frequencies --   3119.0354              3145.2478              3148.9083
 Red. masses --      1.0919                 1.1052                 1.1044
 Frc consts  --      6.2584                 6.4417                 6.4520
 IR Inten    --     35.1322                 0.5859                16.6138

                    109                    110                    111
                      A                      A                      A
 Frequencies --   3163.0035              3199.6963              3202.6008
 Red. masses --      1.1055                 1.0916                 1.0909
 Frc consts  --      6.5167                 6.5848                 6.5921
 IR Inten    --     27.0550                 1.2257                 1.0762

                    112                    113                    114
                      A                      A                      A
 Frequencies --   3211.8987              3237.2008              3341.6462
 Red. masses --      1.0925                 1.0987                 1.0660
 Frc consts  --      6.6407                 6.7834                 7.0132
 IR Inten    --      8.9510                 2.6153              1146.3852

                    115                    116                    117
                      A                      A                      A
 Frequencies --   3639.0718              3867.2687              3872.6538
 Red. masses --      1.0671                 1.0451                 1.0454
 Frc consts  --      8.3257                 9.2094                 9.2378
 IR Inten    --    773.7666                36.7085                30.2451

                    118                    119                    120
                      A                      A                      A
 Frequencies --   3937.1890              3969.3870              3976.5115
 Red. masses --      1.0664                 1.0830                 1.0826
 Frc consts  --      9.7398                10.0537                10.0864
 IR Inten    --    123.7864               125.9951               107.8043

 - Thermochemistry -
 -------------------
 Temperature   298.150 Kelvin.  Pressure   1.00000 Atm.
 Atom     1 has atomic number  7 and mass  14.00307

 Molecular mass:   253.17635 amu.
 Principal axes and moments of inertia in atomic units:
                           1         2         3
     Eigenvalues --  5176.059575493.246578677.26569
           X            0.99306   0.11750  -0.00400
           Y           -0.11750   0.99307   0.00071
           Z            0.00405  -0.00024   0.99999
 This molecule is an asymmetric top.
 Rotational symmetry number  1.
 Warning -- assumption of classical behavior for rotation
           may cause significant error
 Rotational temperatures (Kelvin)      0.01673     0.01577     0.00998
 Rotational constants (GHZ):           0.34867     0.32854     0.20799
 Zero-point vibrational energy     959180.5 (Joules/Mol)
                                  229.24965 (Kcal/Mol)
 Warning -- explicit consideration of  36 degrees of freedom as
           vibrations may cause significant error
 Vibrational temperatures:     19.68    29.86    44.05    68.68    77.59
          (Kelvin)             87.24    96.40   110.70   117.51   125.29
                              138.42   146.07   168.48   184.14   206.60
                              254.71   293.44   316.05   329.52   354.61
                              360.45   373.10   383.35   393.19   412.63
                              441.59   461.24   498.07   546.74   564.84
                              584.41   606.68   670.38   782.07   831.51
                              867.50   921.62   947.89   975.37  1061.83
                             1068.02  1116.59  1125.32  1148.23  1204.72
                             1212.71  1295.10  1333.03  1343.47  1371.88
                             1400.70  1416.01  1420.01  1428.33  1453.68
                             1477.59  1516.39  1522.13  1543.68  1577.04
                             1610.74  1646.95  1659.09  1675.91  1724.67
                             1753.38  1779.79  1787.26  1811.15  1818.25
                             1856.54  1868.52  1894.78  1896.96  1910.39
                             1961.21  1977.17  1987.33  2030.68  2083.75
                             2132.17  2135.38  2139.28  2144.38  2166.43
                             2187.42  2207.20  2335.50  2347.96  2355.74
                             2377.21  2398.21  2427.60  2460.83  2490.36
                             3157.93  3797.88  4266.75  4293.28  4317.63
                             4346.53  4426.20  4451.50  4466.55  4471.80
                             4487.60  4525.31  4530.58  4550.86  4603.65
                             4607.83  4621.21  4657.61  4807.88  5235.81
                             5564.14  5571.89  5664.74  5711.06  5721.31

 Zero-point correction=                           0.365333 (Hartree/Particle)
 Thermal correction to Energy=                    0.389963
 Thermal correction to Enthalpy=                  0.390908
 Thermal correction to Gibbs Free Energy=         0.307963
 Sum of electronic and zero-point Energies=           -881.094063
 Sum of electronic and thermal Energies=              -881.069432
 Sum of electronic and thermal Enthalpies=            -881.068488
 Sum of electronic and thermal Free Energies=         -881.151433

                     E (Thermal)             CV                S
                      KCal/Mol        Cal/Mol-Kelvin    Cal/Mol-Kelvin
 Total                  244.706             85.455            174.572
 Electronic               0.000              0.000              0.000
 Translational            0.889              2.981             42.487
 Rotational               0.889              2.981             33.867
 Vibrational            242.928             79.494             98.219
 Vibration     1          0.593              1.986              7.389
 Vibration     2          0.593              1.986              6.561
 Vibration     3          0.594              1.984              5.789
 Vibration     4          0.595              1.978              4.909
 Vibration     5          0.596              1.976              4.668
 Vibration     6          0.597              1.973              4.436
 Vibration     7          0.598              1.970              4.240
 Vibration     8          0.599              1.965              3.967
 Vibration     9          0.600              1.962              3.850
 Vibration    10          0.601              1.958              3.725
 Vibration    11          0.603              1.952              3.530
 Vibration    12          0.604              1.948              3.425
 Vibration    13          0.608              1.935              3.148
 Vibration    14          0.611              1.925              2.976
 Vibration    15          0.616              1.910              2.755
 Vibration    16          0.628              1.871              2.359
 Vibration    17          0.640              1.834              2.097
 Vibration    18          0.647              1.811              1.962
 Vibration    19          0.652              1.797              1.887
 Vibration    20          0.661              1.769              1.756
 Vibration    21          0.663              1.762              1.727
 Vibration    22          0.668              1.747              1.666
 Vibration    23          0.672              1.735              1.619
 Vibration    24          0.676              1.723              1.575
 Vibration    25          0.684              1.698              1.493
 Vibration    26          0.697              1.661              1.379
 Vibration    27          0.706              1.634              1.307
 Vibration    28          0.724              1.583              1.184
 Vibration    29          0.750              1.513              1.039
 Vibration    30          0.760              1.486              0.990
 Vibration    31          0.771              1.457              0.940
 Vibration    32          0.784              1.423              0.886
 Vibration    33          0.823              1.326              0.749
 Vibration    34          0.899              1.154              0.558
 Vibration    35          0.934              1.079              0.489
 Vibration    36          0.961              1.026              0.445

 Optimization completed.
    -- Stationary point found.
 Normal termination of Gaussian 16 at Sat Mar 11 19:22:21 2023.
