 Gaussian 16, Revision A.03,
 Gaussian 16:  ES64L-G16RevA.03 25-Dec-2016

 ----------------------------------------------------------------
 # wB97XD/aug-cc-pVDZ opt=(TS,CalcAll,MaxStep=5,NoEigenTest) freq
 ----------------------------------------------------------------

 ----
 blah
 ----
 Symbolic Z-matrix:
 Charge =  1 Multiplicity = 1

 SCF Done:  E(RwB97XD) =  -881.458527312     A.U. after   16 cycles
 SCF Done:  E(RwB97XD) =  -881.458533016     A.U. after   12 cycles
 SCF Done:  E(RwB97XD) =  -881.458533046     A.U. after   11 cycles
 SCF Done:  E(RwB97XD) =  -881.458533029     A.U. after    8 cycles
 Optimization completed.
    -- Stationary point found.
 ******    1 imaginary frequencies (negative Signs) ******
    1 imaginary frequencies ignored.
 Normal termination of Gaussian 16 at Thu Mar  9 23:30:05 2023.

 ----------------------------------------------------------------------
 #N Geom=AllCheck Guess=TCheck SCRF=Check GenChk RwB97XD/Aug-CC-pVDZ Fr
 eq
 ----------------------------------------------------------------------

 Structure from the checkpoint file:  "/gscratch/scrubbed/gds001/Gau-30675.chk"
 ----
 blah
 ----
 Charge =  1 Multiplicity = 1

                         Standard orientation:
 ---------------------------------------------------------------------
 Center     Atomic      Atomic             Coordinates (Angstroms)
 Number     Number       Type             X           Y           Z
 ---------------------------------------------------------------------
      1          7           0        2.572992   -0.424933   -0.824412
      2          6           0        3.438278   -1.256914   -0.233852
      3          6           0        3.027530   -2.359944    0.506511
      4          6           0        1.662572   -2.595041    0.650287
      5          6           0        0.747309   -1.740050    0.037333
      6          6           0        1.267687   -0.674358   -0.698412
      7          6           0       -0.741321   -1.950278    0.165174
      8          6           0       -1.502090   -2.171365   -1.152733
      9          6           0       -2.934042   -1.659124   -0.865863
     10          6           0       -2.869249   -1.104822    0.563823
     11          7           0       -1.441907   -0.790893    0.763839
     12          6           0       -1.094278   -0.553117    2.162628
     13          1           0        4.496466   -1.027051   -0.359945
     14          1           0        3.764092   -3.015330    0.967398
     15          1           0        1.310760   -3.444052    1.237871
     16          1           0        0.603960    0.019558   -1.215682
     17          1           0       -0.904948   -2.822780    0.824494
     18          1           0       -1.033969   -1.596835   -1.960231
     19          1           0       -1.473711   -3.226032   -1.444417
     20          1           0       -3.211030   -0.871469   -1.575286
     21          1           0       -3.684157   -2.452031   -0.946591
     22          1           0       -3.476773   -0.204185    0.714274
     23          1           0       -3.189198   -1.862926    1.298766
     24          1           0       -1.308426   -1.436737    2.787007
     25          1           0       -1.676253    0.294495    2.543043
     26          1           0       -0.028670   -0.308924    2.244355
     27          8           0        2.671569    2.159188   -1.652188
     28          8           0       -1.265944    1.440661   -0.550259
     29          8           0        0.559646    2.974942   -0.400851
     30          8           0       -3.845185    2.283167   -0.615031
     31          1           0        2.932496    2.342661   -2.557194
     32          1           0       -2.163403    1.830590   -0.578097
     33          1           0        0.878438    3.214408    0.497319
     34          1           0       -4.207913    3.007040   -0.096661
     35          1           0       -4.304475    2.314875   -1.459308
     36          1           0        2.807080    1.192424   -1.482050
     37          1           0        1.352721    2.702628   -0.949587
     38          1           0       -0.355233    2.205059   -0.433869
     39          1           0       -1.278598    0.543570   -0.010459
     40          8           0        1.451520    3.593946    2.075375
     41          1           0        2.377947    3.423230    2.269879
     42          1           0        1.267980    4.463457    2.443233
 ---------------------------------------------------------------------

 SCF Done:  E(RwB97XD) =  -881.458533029     A.U. after    2 cycles

 The electronic state is 1-A.
 Alpha  occ. eigenvalues --  -19.42062 -19.41641 -19.40647 -19.40130 -19.37755
 Alpha  occ. eigenvalues --  -14.58630 -14.57479 -10.45093 -10.45077 -10.44896
 Alpha  occ. eigenvalues --  -10.43371 -10.43248 -10.43210 -10.43068 -10.42102
 Alpha  occ. eigenvalues --  -10.40533 -10.40306  -1.27434  -1.26406  -1.25722
 Alpha  occ. eigenvalues --   -1.23799  -1.21785  -1.17602  -1.16685  -1.03463
 Alpha  occ. eigenvalues --   -1.00384  -0.99048  -0.93475  -0.89208  -0.85103
 Alpha  occ. eigenvalues --   -0.83909  -0.79897  -0.79241  -0.78187  -0.76677
 Alpha  occ. eigenvalues --   -0.76653  -0.76203  -0.76168  -0.73757  -0.72025
 Alpha  occ. eigenvalues --   -0.70590  -0.69668  -0.68565  -0.65479  -0.65174
 Alpha  occ. eigenvalues --   -0.64448  -0.63821  -0.62903  -0.61636  -0.61069
 Alpha  occ. eigenvalues --   -0.60787  -0.60235  -0.59135  -0.58371  -0.57910
 Alpha  occ. eigenvalues --   -0.56558  -0.56174  -0.55347  -0.54962  -0.54729
 Alpha  occ. eigenvalues --   -0.54265  -0.53835  -0.53531  -0.51710  -0.51560
 Alpha  occ. eigenvalues --   -0.48237  -0.47129  -0.45456  -0.44873
 Alpha virt. eigenvalues --   -0.08128  -0.06914  -0.06856  -0.05846  -0.04419
 Alpha virt. eigenvalues --   -0.04226  -0.03258  -0.03045  -0.02627  -0.02303
 Alpha virt. eigenvalues --   -0.02031  -0.01388  -0.00737  -0.00553  -0.00360

 Mulliken charges:
               1
     1  N   -0.533500
     2  C    0.244971
     3  C    0.559112
     4  C    1.208740
     5  C    0.675460
     6  C    0.926917
     7  C    1.371145
     8  C    1.032346
     9  C    0.786424
    10  C    1.473401
    11  N   -1.647439
    12  C    1.005503
    13  H   -0.608174
    14  H   -0.605298
    15  H   -0.919788
    16  H   -1.317187
    17  H   -0.833926
    18  H   -0.292077
    19  H   -0.527957
    20  H   -0.311350
    21  H   -0.288435
    22  H   -0.650650
    23  H   -0.574728
    24  H   -0.197283
    25  H   -0.238914
    26  H   -0.127139
    27  O   -0.456255
    28  O   -0.519912
    29  O   -0.567906
    30  O   -0.462631
    31  H    0.154837
    32  H    0.176103
    33  H    0.316344
    34  H    0.204218
    35  H    0.207433
    36  H    0.330854
    37  H    0.365615
    38  H    0.714168
    39  H    0.926696
    40  O   -0.333793
    41  H    0.163723
    42  H    0.170334
 Sum of Mulliken charges =   1.00000

 Dipole moment (field-independent basis, Debye):
    X=             -1.8822    Y=              3.9005    Z=              1.9067  Tot=              4.7320
 Quadrupole moment (field-independent basis, Debye-Ang):
   XX=            -52.9302   YY=            -58.6420   ZZ=            -86.0993
   XY=             -6.9918   XZ=              7.1646   YZ=              3.8903

  Exact polarizability: 202.074  -1.747 168.919   0.605 -11.756 146.182
 Approx polarizability: 202.955  -1.057 184.260   1.014 -17.780 167.885

 ******    1 imaginary frequencies (negative Signs) ******

                      1                      2                      3
                      A                      A                      A
 Frequencies --   -374.2042                13.8840                21.1718
 Red. masses --      1.5717                 4.9864                 4.4683
 Frc consts  --      0.1297                 0.0006                 0.0012
 IR Inten    --   1938.3058                 0.7663                 0.3896

                      4                      5                      6
                      A                      A                      A
 Frequencies --     29.8990                43.5808                47.9506
 Red. masses --      4.4478                 4.4839                 4.0394
 Frc consts  --      0.0023                 0.0050                 0.0055
 IR Inten    --      3.2398                 0.8956                 2.3416

                      7                      8                      9
                      A                      A                      A
 Frequencies --     55.5300                62.4241                75.4184
 Red. masses --      4.3739                 3.9235                 2.3773
 Frc consts  --      0.0079                 0.0090                 0.0080
 IR Inten    --      0.6309                 1.9346                 0.1621

                     10                     11                     12
                      A                      A                      A
 Frequencies --     86.4621               100.6253               101.5052
 Red. masses --      4.5772                 4.6179                 1.9745
 Frc consts  --      0.0202                 0.0275                 0.0120
 IR Inten    --      4.5632                 1.6230                 9.8920

                     13                     14                     15
                      A                      A                      A
 Frequencies --    110.4458               114.9557               140.9508
 Red. masses --      1.5893                 3.7118                 1.0725
 Frc consts  --      0.0114                 0.0289                 0.0126
 IR Inten    --     19.4983                 4.4270                21.9023

                     16                     17                     18
                      A                      A                      A
 Frequencies --    173.6035               193.8476               214.5960
 Red. masses --      2.1225                 3.9958                 4.1317
 Frc consts  --      0.0377                 0.0885                 0.1121
 IR Inten    --      0.6591                11.8129                25.5397

                     19                     20                     21
                      A                      A                      A
 Frequencies --    222.9359               242.2427               246.8946
 Red. masses --      3.7069                 2.4062                 1.4260
 Frc consts  --      0.1085                 0.0832                 0.0512
 IR Inten    --     18.7141                28.2514                11.8160

                     22                     23                     24
                      A                      A                      A
 Frequencies --    264.0087               267.1688               286.7185
 Red. masses --      2.1928                 1.2881                 1.6297
 Frc consts  --      0.0901                 0.0542                 0.0789
 IR Inten    --     23.8519               101.1548                54.9160

                     25                     26                     27
                      A                      A                      A
 Frequencies --    291.0634               295.2560               308.8687
 Red. masses --      1.2470                 1.5074                 1.4587
 Frc consts  --      0.0622                 0.0774                 0.0820
 IR Inten    --     60.3560               110.2247               189.6565

                     28                     29                     30
                      A                      A                      A
 Frequencies --    320.6276               335.0544               389.2076
 Red. masses --      4.0540                 1.2547                 2.9380
 Frc consts  --      0.2455                 0.0830                 0.2622
 IR Inten    --      3.0583               182.8024               228.9864

                     31                     32                     33
                      A                      A                      A
 Frequencies --    404.2148               419.1658               520.7957
 Red. masses --      2.9787                 3.0540                 1.6243
 Frc consts  --      0.2867                 0.3162                 0.2596
 IR Inten    --      2.1354                 3.1619               127.6193

                     34                     35                     36
                      A                      A                      A
 Frequencies --    554.9525               579.9328               582.5490
 Red. masses --      1.9745                 2.9954                 2.0179
 Frc consts  --      0.3583                 0.5935                 0.4035
 IR Inten    --     31.0951               122.0235               739.6629

                     37                     38                     39
                      A                      A                      A
 Frequencies --    638.8151               651.7120               656.1977
 Red. masses --      3.8205                 3.8143                 5.7844
 Frc consts  --      0.9186                 0.9545                 1.4675
 IR Inten    --      6.4122               108.4183                33.0008

                     40                     41                     42
                      A                      A                      A
 Frequencies --    681.6323               739.6368               781.8884
 Red. masses --      5.4506                 1.9307                 1.1883
 Frc consts  --      1.4921                 0.6223                 0.4280
 IR Inten    --      3.6808                34.2558                17.6498

                     43                     44                     45
                      A                      A                      A
 Frequencies --    788.2639               810.7199               828.3011
 Red. masses --      1.1701                 1.0609                 1.1642
 Frc consts  --      0.4284                 0.4108                 0.4706
 IR Inten    --     25.4745                67.3031               234.5161

                     46                     47                     48
                      A                      A                      A
 Frequencies --    837.3614               838.4510               888.5954
 Red. masses --      1.7974                 1.6278                 1.1422
 Frc consts  --      0.7425                 0.6742                 0.5314
 IR Inten    --     48.2318                32.0223               155.9737

                     49                     50                     51
                      A                      A                      A
 Frequencies --    909.2465               935.4317               939.7013
 Red. masses --      1.1504                 2.0845                 2.1303
 Frc consts  --      0.5603                 1.0747                 1.1083
 IR Inten    --    194.6857                17.2604                47.9134

                     52                     53                     54
                      A                      A                      A
 Frequencies --    954.8202               977.8053               987.6789
 Red. masses --      2.3102                 1.3324                 1.5298
 Frc consts  --      1.2409                 0.7506                 0.8792
 IR Inten    --     30.4194                 3.0457                 0.3215

                     55                     56                     57
                      A                      A                      A
 Frequencies --   1009.4951              1026.4525              1053.0121
 Red. masses --      1.8495                 1.4175                 4.8015
 Frc consts  --      1.1105                 0.8799                 3.1369
 IR Inten    --      4.3163                 0.3899                29.7899

                     58                     59                     60
                      A                      A                      A
 Frequencies --   1055.9108              1067.7540              1070.3248
 Red. masses --      2.2781                 1.1450                 1.9285
 Frc consts  --      1.4965                 0.7691                 1.3016
 IR Inten    --      2.0548               422.8192                19.9192

                     61                     62                     63
                      A                      A                      A
 Frequencies --   1096.7076              1115.2806              1131.8053
 Red. masses --      1.8945                 1.8531                 1.4964
 Frc consts  --      1.3425                 1.3580                 1.1294
 IR Inten    --      9.4378                16.6891                60.5003

                     64                     65                     66
                      A                      A                      A
 Frequencies --   1152.7485              1169.0752              1215.2362
 Red. masses --      1.4056                 1.5406                 1.3788
 Frc consts  --      1.1005                 1.2405                 1.1997
 IR Inten    --     10.9607                56.2926                18.1259

                     67                     68                     69
                      A                      A                      A
 Frequencies --   1222.6724              1239.5104              1243.1813
 Red. masses --      1.4694                 1.7064                 1.4599
 Frc consts  --      1.2942                 1.5447                 1.3294
 IR Inten    --     33.8517                 9.5758                31.3786

                     70                     71                     72
                      A                      A                      A
 Frequencies --   1260.1625              1271.4212              1292.0999
 Red. masses --      1.6292                 1.7386                 1.5907
 Frc consts  --      1.5243                 1.6559                 1.5647
 IR Inten    --     16.0804                56.0591                 6.7809

                     73                     74                     75
                      A                      A                      A
 Frequencies --   1297.9785              1316.3318              1329.2176
 Red. masses --      1.3368                 3.9250                 1.3902
 Frc consts  --      1.3270                 4.0070                 1.4471
 IR Inten    --     13.0047                 4.2176                 3.0924

                     76                     77                     78
                      A                      A                      A
 Frequencies --   1366.8874              1373.4369              1381.8408
 Red. masses --      1.3380                 1.4405                 1.4984
 Frc consts  --      1.4729                 1.6009                 1.6857
 IR Inten    --      5.4339                16.7438                 4.0368

                     79                     80                     81
                      A                      A                      A
 Frequencies --   1413.3772              1446.2078              1479.4612
 Red. masses --      1.6145                 1.1936                 1.0491
 Frc consts  --      1.9002                 1.4709                 1.3530
 IR Inten    --      3.7916                 3.8346                30.6474

                     82                     83                     84
                      A                      A                      A
 Frequencies --   1481.8512              1486.7590              1488.2346
 Red. masses --      1.9867                 1.0626                 1.1143
 Frc consts  --      2.5704                 1.3838                 1.4541
 IR Inten    --     35.6026                10.0802                12.4249

                     85                     86                     87
                      A                      A                      A
 Frequencies --   1490.8692              1507.5771              1521.8550
 Red. masses --      1.0702                 1.0956                 1.1585
 Frc consts  --      1.4015                 1.4671                 1.5809
 IR Inten    --      5.0122                 8.0523                12.6413

                     88                     89                     90
                      A                      A                      A
 Frequencies --   1534.4207              1571.8948              1636.4351
 Red. masses --      2.2092                 1.0492                 1.0892
 Frc consts  --      3.0646                 1.5274                 1.7186
 IR Inten    --     16.3825                90.3682                84.2323

                     91                     92                     93
                      A                      A                      A
 Frequencies --   1640.5037              1642.8110              1665.6735
 Red. masses --      1.0858                 1.1055                 5.0381
 Frc consts  --      1.7216                 1.7578                 8.2357
 IR Inten    --     74.9184                56.3327                 8.9126

                     94                     95                     96
                      A                      A                      A
 Frequencies --   1686.4617              1741.5265              1783.3469
 Red. masses --      5.9057                 1.0602                 1.0672
 Frc consts  --      9.8964                 1.8945                 1.9997
 IR Inten    --      9.9389                53.6324               374.6044

                     97                     98                     99
                      A                      A                      A
 Frequencies --   2270.8714              2992.5201              3016.8375
 Red. masses --      1.1050                 1.0841                 1.0483
 Frc consts  --      3.3574                 5.7199                 5.6214
 IR Inten    --   1869.5333                16.1081                11.7319

                    100                    101                    102
                      A                      A                      A
 Frequencies --   3021.9783              3093.8463              3095.0719
 Red. masses --      1.0660                 1.0713                 1.0654
 Frc consts  --      5.7356                 6.0418                 6.0132
 IR Inten    --     40.1159               981.8653               416.0249

                    103                    104                    105
                      A                      A                      A
 Frequencies --   3104.3331              3115.4807              3121.8671
 Red. masses --      1.0653                 1.0916                 1.0947
 Frc consts  --      6.0486                 6.2426                 6.2861
 IR Inten    --     20.0286                27.4596                23.3063

                    106                    107                    108
                      A                      A                      A
 Frequencies --   3147.0109              3152.5832              3163.6816
 Red. masses --      1.1054                 1.1047                 1.1055
 Frc consts  --      6.4501                 6.4691                 6.5193
 IR Inten    --      0.5934                15.3010                23.9768

                    109                    110                    111
                      A                      A                      A
 Frequencies --   3198.2490              3200.4522              3209.9528
 Red. masses --      1.0914                 1.0910                 1.0922
 Frc consts  --      6.5778                 6.5843                 6.6306
 IR Inten    --      6.3433                 3.1110                 3.2640

                    112                    113                    114
                      A                      A                      A
 Frequencies --   3237.2938              3312.8610              3494.6247
 Red. masses --      1.0984                 1.0665                 1.0665
 Frc consts  --      6.7823                 6.8964                 7.6738
 IR Inten    --      4.1140              1408.1935               934.9087

                    115                    116                    117
                      A                      A                      A
 Frequencies --   3553.7418              3867.5294              3869.9955
 Red. masses --      1.0672                 1.0454                 1.0454
 Frc consts  --      7.9407                 9.2129                 9.2248
 IR Inten    --    895.9409                29.7741                35.9329

                    118                    119                    120
                      A                      A                      A
 Frequencies --   3945.2461              3968.8150              3972.2748
 Red. masses --      1.0672                 1.0825                 1.0827
 Frc consts  --      9.7867                10.0462                10.0651
 IR Inten    --    127.2230               110.2656               116.8609

 - Thermochemistry -
 -------------------
 Temperature   298.150 Kelvin.  Pressure   1.00000 Atm.
 Atom     1 has atomic number  7 and mass  14.00307

 Molecular mass:   253.17635 amu.
 Principal axes and moments of inertia in atomic units:
                           1         2         3
     Eigenvalues --  4823.583835580.649368238.69586
           X            0.99876   0.04965   0.00443
           Y           -0.04965   0.99877   0.00024
           Z           -0.00441  -0.00045   0.99999
 This molecule is an asymmetric top.
 Rotational symmetry number  1.
 Warning -- assumption of classical behavior for rotation
           may cause significant error
 Rotational temperatures (Kelvin)      0.01796     0.01552     0.01051
 Rotational constants (GHZ):           0.37415     0.32339     0.21906
    1 imaginary frequencies ignored.
 Zero-point vibrational energy     951448.1 (Joules/Mol)
                                  227.40155 (Kcal/Mol)
 Warning -- explicit consideration of  35 degrees of freedom as
           vibrations may cause significant error
 Vibrational temperatures:     19.98    30.46    43.02    62.70    68.99
          (Kelvin)             79.90    89.81   108.51   124.40   144.78
                              146.04   158.91   165.40   202.80   249.78
                              278.90   308.76   320.75   348.53   355.23
                              379.85   384.40   412.52   418.78   424.81
                              444.39   461.31   482.07   559.98   581.57
                              603.09   749.31   798.45   834.39   838.16
                              919.11   937.67   944.12   980.72  1064.17
                             1124.96  1134.14  1166.45  1191.74  1204.78
                             1206.34  1278.49  1308.20  1345.88  1352.02
                             1373.77  1406.84  1421.05  1452.44  1476.84
                             1515.05  1519.22  1536.26  1539.96  1577.92
                             1604.64  1628.42  1658.55  1682.04  1748.45
                             1759.15  1783.38  1788.66  1813.09  1829.29
                             1859.04  1867.50  1893.91  1912.45  1966.65
                             1976.07  1988.16  2033.53  2080.77  2128.61
                             2132.05  2139.11  2141.24  2145.03  2169.07
                             2189.61  2207.69  2261.61  2354.47  2360.32
                             2363.64  2396.53  2426.44  2505.67  2565.84
                             3267.28  4305.57  4340.56  4347.95  4451.35
                             4453.12  4466.44  4482.48  4491.67  4527.85
                             4535.86  4551.83  4601.57  4604.74  4618.41
                             4657.74  4766.47  5027.99  5113.04  5564.51
                             5568.06  5676.33  5710.24  5715.22

 Zero-point correction=                           0.362387 (Hartree/Particle)
 Thermal correction to Energy=                    0.386519
 Thermal correction to Enthalpy=                  0.387463
 Thermal correction to Gibbs Free Energy=         0.305556
 Sum of electronic and zero-point Energies=           -881.096146
 Sum of electronic and thermal Energies=              -881.072014
 Sum of electronic and thermal Enthalpies=            -881.071070
 Sum of electronic and thermal Free Energies=         -881.152977

                     E (Thermal)             CV                S
                      KCal/Mol        Cal/Mol-Kelvin    Cal/Mol-Kelvin
 Total                  242.544             84.306            172.387
 Electronic               0.000              0.000              0.000
 Translational            0.889              2.981             42.487
 Rotational               0.889              2.981             33.761
 Vibrational            240.767             78.345             96.140
 Vibration     1          0.593              1.986              7.359
 Vibration     2          0.593              1.985              6.521
 Vibration     3          0.594              1.984              5.836
 Vibration     4          0.595              1.980              5.089
 Vibration     5          0.595              1.978              4.900
 Vibration     6          0.596              1.975              4.610
 Vibration     7          0.597              1.972              4.379
 Vibration     8          0.599              1.965              4.007
 Vibration     9          0.601              1.959              3.739
 Vibration    10          0.604              1.949              3.442
 Vibration    11          0.604              1.948              3.425
 Vibration    12          0.606              1.941              3.261
 Vibration    13          0.608              1.937              3.183
 Vibration    14          0.615              1.912              2.791
 Vibration    15          0.627              1.875              2.396
 Vibration    16          0.635              1.848              2.191
 Vibration    17          0.645              1.819              2.004
 Vibration    18          0.649              1.806              1.935
 Vibration    19          0.658              1.776              1.786
 Vibration    20          0.661              1.768              1.753
 Vibration    21          0.671              1.739              1.635
 Vibration    22          0.672              1.733              1.614
 Vibration    23          0.684              1.698              1.493
 Vibration    24          0.687              1.690              1.468
 Vibration    25          0.689              1.683              1.444
 Vibration    26          0.698              1.657              1.368
 Vibration    27          0.706              1.634              1.307
 Vibration    28          0.716              1.605              1.236
 Vibration    29          0.757              1.493              1.003
 Vibration    30          0.769              1.461              0.947
 Vibration    31          0.782              1.429              0.895
 Vibration    32          0.876              1.204              0.608
 Vibration    33          0.910              1.129              0.534
 Vibration    34          0.937              1.075              0.485
 Vibration    35          0.939              1.069              0.481

 Optimization completed.
    -- Stationary point found.
 Normal termination of Gaussian 16 at Fri Mar 10 00:59:42 2023.
