 Gaussian 16, Revision A.03,
 Gaussian 16:  ES64L-G16RevA.03 25-Dec-2016

 -----------------------------
 # wB97XD/aug-cc-pVDZ opt freq
 -----------------------------

 ----
 blah
 ----
 Symbolic Z-matrix:
 Charge =  1 Multiplicity = 1

 SCF Done:  E(RwB97XD) =  -805.021394175     A.U. after   14 cycles
 SCF Done:  E(RwB97XD) =  -805.022067650     A.U. after   14 cycles
 SCF Done:  E(RwB97XD) =  -805.020659197     A.U. after   15 cycles
 SCF Done:  E(RwB97XD) =  -805.022209029     A.U. after   13 cycles
 SCF Done:  E(RwB97XD) =  -805.022271842     A.U. after   14 cycles
 SCF Done:  E(RwB97XD) =  -805.022357101     A.U. after   15 cycles
 SCF Done:  E(RwB97XD) =  -805.022533734     A.U. after   14 cycles
 SCF Done:  E(RwB97XD) =  -805.022560549     A.U. after   12 cycles
 SCF Done:  E(RwB97XD) =  -805.022635211     A.U. after   14 cycles
 SCF Done:  E(RwB97XD) =  -805.022648043     A.U. after   12 cycles
 SCF Done:  E(RwB97XD) =  -805.022798455     A.U. after   11 cycles
 SCF Done:  E(RwB97XD) =  -805.022803758     A.U. after   11 cycles
 SCF Done:  E(RwB97XD) =  -805.022805359     A.U. after   11 cycles
 SCF Done:  E(RwB97XD) =  -805.022806390     A.U. after   10 cycles
 SCF Done:  E(RwB97XD) =  -805.022807775     A.U. after   10 cycles
 SCF Done:  E(RwB97XD) =  -805.022807444     A.U. after   10 cycles
 SCF Done:  E(RwB97XD) =  -805.022810327     A.U. after   10 cycles
 SCF Done:  E(RwB97XD) =  -805.022811563     A.U. after   11 cycles
 SCF Done:  E(RwB97XD) =  -805.022811627     A.U. after    8 cycles
 Optimization completed.
    -- Stationary point found.
 Normal termination of Gaussian 16 at Fri Jan 27 14:38:36 2023.

 ----------------------------------------------------------------------
 #N Geom=AllCheck Guess=TCheck SCRF=Check GenChk RwB97XD/Aug-CC-pVDZ Fr
 eq
 ----------------------------------------------------------------------

 Structure from the checkpoint file:  "/gscratch/scrubbed/gds001/Gau-1837.chk"
 ----
 blah
 ----
 Charge =  1 Multiplicity = 1

                         Standard orientation:
 ---------------------------------------------------------------------
 Center     Atomic      Atomic             Coordinates (Angstroms)
 Number     Number       Type             X           Y           Z
 ---------------------------------------------------------------------
      1          6           0        1.651987    2.251493    0.446193
      2          6           0        1.981709    0.910582    0.224768
      3          6           0        1.003725    0.096934   -0.329807
      4          7           0       -0.202603    0.592984   -0.644362
      5          6           0       -0.534018    1.876761   -0.445195
      6          6           0        0.392169    2.742415    0.108741
      7          6           0        3.359411    0.364236    0.536962
      8          7           0        3.344165   -1.088497    0.651286
      9          6           0        4.629522   -1.578903    0.161576
     10          6           0        4.883032   -0.699891   -1.055059
     11          6           0        4.397859    0.680425   -0.580956
     12          8           0       -2.024018   -1.048421   -1.620593
     13          8           0       -4.118747   -1.557855   -0.119414
     14          1           0        4.561745   -2.648087   -0.073253
     15          1           0        5.933651   -0.689786   -1.363174
     16          1           0        4.281611   -1.054491   -1.901587
     17          1           0        5.226265    1.256798   -0.153476
     18          1           0        3.967298    1.277993   -1.392483
     19          1           0        5.431370   -1.443824    0.915241
     20          1           0        3.690210    0.837078    1.482354
     21          1           0        1.178645   -0.959654   -0.518580
     22          1           0       -1.540804    2.168644   -0.733634
     23          1           0        0.126128    3.783304    0.276812
     24          1           0        2.390685    2.919886    0.890343
     25          6           0        2.974312   -1.574374    1.967168
     26          1           0       -0.925115   -0.056929   -1.060378
     27          1           0       -2.835572   -1.273736   -1.097647
     28          1           0       -2.189763   -1.294247   -2.532448
     29          1           0       -5.005665   -1.169519   -0.288604
     30          1           0       -4.271879   -2.423708    0.264018
     31          8           0       -6.520112   -0.446831   -0.619136
     32          1           0       -7.070706   -0.716672   -1.357034
     33          1           0       -7.132319   -0.150819    0.078492
     34          1           0        1.972883   -1.213373    2.239078
     35          1           0        3.684004   -1.246091    2.751610
     36          1           0        2.947244   -2.670484    1.961221
     37          8           0       -8.260028    0.394445    1.363546
     38          1           0       -8.794058   -0.174030    1.924279
     39          1           0       -8.671793    1.261571    1.398816
 ---------------------------------------------------------------------

 SCF Done:  E(RwB97XD) =  -805.022811627     A.U. after    1 cycles

 The electronic state is 1-A.
 Alpha  occ. eigenvalues --  -19.38875 -19.38214 -19.36613 -19.36520 -14.66316
 Alpha  occ. eigenvalues --  -14.54477 -10.49882 -10.49107 -10.46570 -10.45830
 Alpha  occ. eigenvalues --  -10.45739 -10.44496 -10.40941 -10.40928 -10.39958
 Alpha  occ. eigenvalues --  -10.38709  -1.24662  -1.23270  -1.22739  -1.21237
 Alpha  occ. eigenvalues --   -1.19986  -1.14912  -1.06963  -1.03253  -0.98638
 Alpha  occ. eigenvalues --   -0.94268  -0.89367  -0.87989  -0.86748  -0.81224
 Alpha  occ. eigenvalues --   -0.77963  -0.77021  -0.74087  -0.73645  -0.73170
 Alpha  occ. eigenvalues --   -0.72482  -0.72204  -0.72012  -0.69530  -0.68278
 Alpha  occ. eigenvalues --   -0.67793  -0.66412  -0.63323  -0.62972  -0.62454
 Alpha  occ. eigenvalues --   -0.61516  -0.61104  -0.59931  -0.59102  -0.57467
 Alpha  occ. eigenvalues --   -0.56399  -0.55605  -0.55100  -0.54578  -0.53744
 Alpha  occ. eigenvalues --   -0.52136  -0.51826  -0.51743  -0.51700  -0.50557
 Alpha  occ. eigenvalues --   -0.50203  -0.49890  -0.47770  -0.40434
 Alpha virt. eigenvalues --   -0.12910  -0.09383  -0.05854  -0.04778  -0.04292
 Alpha virt. eigenvalues --   -0.03700  -0.03290  -0.02809  -0.02296  -0.01932
 Alpha virt. eigenvalues --   -0.01899  -0.01304  -0.00901  -0.00746  -0.00270

 Mulliken charges:
               1
     1  C    1.115121
     2  C    0.760602
     3  C    0.699622
     4  N    0.010898
     5  C    0.722696
     6  C    0.305911
     7  C    0.953598
     8  N   -0.409863
     9  C    1.161089
    10  C    0.607646
    11  C    0.941521
    12  O   -0.475892
    13  O   -0.403611
    14  H   -0.512299
    15  H   -0.267183
    16  H   -0.374466
    17  H   -0.362931
    18  H   -0.445578
    19  H   -0.454456
    20  H   -0.546401
    21  H   -0.969518
    22  H   -0.655981
    23  H   -0.562734
    24  H   -0.874181
    25  C    0.798850
    26  H    0.104266
    27  H    0.293913
    28  H    0.132749
    29  H    0.272448
    30  H    0.126854
    31  O   -0.353689
    32  H    0.129990
    33  H    0.224169
    34  H   -0.287764
    35  H   -0.169032
    36  H   -0.214448
    37  O   -0.314099
    38  H    0.148586
    39  H    0.143597
 Sum of Mulliken charges =   1.00000

 Dipole moment (field-independent basis, Debye):
    X=             -6.8154    Y=              2.2012    Z=              0.0346  Tot=              7.1621
 Quadrupole moment (field-independent basis, Debye-Ang):
   XX=             36.0898   YY=            -72.7356   ZZ=            -84.7778
   XY=              3.7873   XZ=             -5.6572   YZ=              3.1661

  Exact polarizability: 192.923 -14.164 165.449   6.226   2.160 135.660
 Approx polarizability: 186.959  -6.336 184.367  10.378   7.705 151.867

                      1                      2                      3
                      A                      A                      A
 Frequencies --      4.4558                 9.3638                14.0862
 Red. masses --      4.8430                 5.3396                 3.6453
 Frc consts  --      0.0001                 0.0003                 0.0004
 IR Inten    --      0.0977                 0.5467                 0.4027

                      4                      5                      6
                      A                      A                      A
 Frequencies --     16.8989                25.3167                28.7408
 Red. masses --      3.5076                 3.6392                 5.2290
 Frc consts  --      0.0006                 0.0014                 0.0025
 IR Inten    --      0.3511                 0.4888                 1.0148

                      7                      8                      9
                      A                      A                      A
 Frequencies --     36.5259                41.4219                55.4735
 Red. masses --      3.8758                 5.5651                 6.6350
 Frc consts  --      0.0030                 0.0056                 0.0120
 IR Inten    --      0.7125                 2.2440                 2.9707

                     10                     11                     12
                      A                      A                      A
 Frequencies --     94.8639                97.0816               121.5947
 Red. masses --      1.1751                 2.6929                 3.4527
 Frc consts  --      0.0062                 0.0150                 0.0301
 IR Inten    --     17.1383                 7.1982                 0.9678

                     13                     14                     15
                      A                      A                      A
 Frequencies --    154.8835               164.1712               178.2490
 Red. masses --      1.1368                 2.4320                 1.6220
 Frc consts  --      0.0161                 0.0386                 0.0304
 IR Inten    --    206.6099                30.7728                34.5404

                     16                     17                     18
                      A                      A                      A
 Frequencies --    190.7204               201.3675               213.4936
 Red. masses --      3.0106                 1.1940                 1.6212
 Frc consts  --      0.0645                 0.0285                 0.0435
 IR Inten    --     78.2049                68.7386                 0.6009

                     19                     20                     21
                      A                      A                      A
 Frequencies --    224.3444               239.4431               246.4435
 Red. masses --      5.3130                 1.0829                 1.1929
 Frc consts  --      0.1576                 0.0366                 0.0427
 IR Inten    --     40.6703                50.5701                 1.6874

                     22                     23                     24
                      A                      A                      A
 Frequencies --    261.2155               276.2908               288.8973
 Red. masses --      1.0757                 3.0017                 4.9891
 Frc consts  --      0.0432                 0.1350                 0.2453
 IR Inten    --    101.7205                 2.0221                 8.0040

                     25                     26                     27
                      A                      A                      A
 Frequencies --    297.3701               356.7825               368.4058
 Red. masses --      3.5277                 2.8404                 4.6516
 Frc consts  --      0.1838                 0.2130                 0.3720
 IR Inten    --      1.2439                 6.3759                29.4034

                     28                     29                     30
                      A                      A                      A
 Frequencies --    412.0374               417.1587               430.5827
 Red. masses --      1.0629                 2.9783                 3.1672
 Frc consts  --      0.1063                 0.3054                 0.3460
 IR Inten    --     14.9091                 1.1464                 0.6372

                     31                     32                     33
                      A                      A                      A
 Frequencies --    474.9726               529.4426               576.7311
 Red. masses --      1.0497                 3.0210                 1.3864
 Frc consts  --      0.1395                 0.4989                 0.2717
 IR Inten    --     30.1465                 2.0359                19.5226

                     34                     35                     36
                      A                      A                      A
 Frequencies --    587.1374               619.5909               642.2699
 Red. masses --      1.9286                 4.0762                 5.0632
 Frc consts  --      0.3917                 0.9220                 1.2306
 IR Inten    --      7.7228                12.5586                15.6555

                     37                     38                     39
                      A                      A                      A
 Frequencies --    660.4690               714.1777               724.6820
 Red. masses --      3.4905                 2.0243                 1.0524
 Frc consts  --      0.8971                 0.6083                 0.3256
 IR Inten    --      3.6447                36.8708               134.4969

                     40                     41                     42
                      A                      A                      A
 Frequencies --    780.4214               836.1243               843.8551
 Red. masses --      2.5780                 1.4532                 1.0720
 Frc consts  --      0.9251                 0.5986                 0.4497
 IR Inten    --      8.8976                19.1653               105.0296

                     43                     44                     45
                      A                      A                      A
 Frequencies --    872.8509               903.4291               938.3216
 Red. masses --      2.0632                 1.8190                 3.1450
 Frc consts  --      0.9261                 0.8747                 1.6315
 IR Inten    --      4.7714                 7.3987                 7.1018

                     46                     47                     48
                      A                      A                      A
 Frequencies --    946.4707               964.2216               974.7285
 Red. masses --      1.0481                 2.0244                 1.9478
 Frc consts  --      0.5532                 1.1089                 1.0903
 IR Inten    --     72.8674                 4.1329                 2.8861

                     49                     50                     51
                      A                      A                      A
 Frequencies --    980.2429               994.2916              1032.6038
 Red. masses --      1.3047                 1.6011                 1.3814
 Frc consts  --      0.7386                 0.9326                 0.8678
 IR Inten    --      4.3135                 1.6827                 0.3057

                     52                     53                     54
                      A                      A                      A
 Frequencies --   1042.9995              1063.2106              1078.9420
 Red. masses --      3.7925                 2.0884                 1.7529
 Frc consts  --      2.4308                 1.3909                 1.2023
 IR Inten    --      3.8024                 6.3173                17.6665

                     55                     56                     57
                      A                      A                      A
 Frequencies --   1086.5841              1106.4493              1137.1217
 Red. masses --      2.1963                 1.8387                 1.2642
 Frc consts  --      1.5278                 1.3262                 0.9631
 IR Inten    --      2.7819                 8.5606                 4.4553

                     58                     59                     60
                      A                      A                      A
 Frequencies --   1142.8681              1181.0294              1208.8853
 Red. masses --      1.4980                 1.4190                 1.1786
 Frc consts  --      1.1528                 1.1662                 1.0148
 IR Inten    --      4.6749                 6.7885                 7.9671

                     61                     62                     63
                      A                      A                      A
 Frequencies --   1213.4240              1232.8890              1247.0293
 Red. masses --      1.6270                 1.9990                 1.0889
 Frc consts  --      1.4115                 1.7903                 0.9977
 IR Inten    --      3.4150                18.2843                28.0434

                     64                     65                     66
                      A                      A                      A
 Frequencies --   1256.7321              1271.0284              1284.7101
 Red. masses --      1.7833                 1.5879                 1.9062
 Frc consts  --      1.6594                 1.5114                 1.8536
 IR Inten    --     12.8805                 9.5596                29.2809

                     67                     68                     69
                      A                      A                      A
 Frequencies --   1304.6178              1308.1759              1339.9584
 Red. masses --      1.4507                 1.3797                 1.6165
 Frc consts  --      1.4547                 1.3911                 1.7100
 IR Inten    --      9.1505                 1.6125                 8.3866

                     70                     71                     72
                      A                      A                      A
 Frequencies --   1347.6675              1364.8361              1374.7296
 Red. masses --      1.4574                 2.6790                 1.6486
 Frc consts  --      1.5595                 2.9403                 1.8357
 IR Inten    --      0.6906                19.1306                15.3078

                     73                     74                     75
                      A                      A                      A
 Frequencies --   1392.3274              1432.4777              1453.9071
 Red. masses --      1.7115                 1.8030                 1.2174
 Frc consts  --      1.9548                 2.1799                 1.5162
 IR Inten    --      8.0878                43.1307                 5.6721

                     76                     77                     78
                      A                      A                      A
 Frequencies --   1478.6964              1482.8788              1491.3683
 Red. masses --      1.0479                 1.0861                 1.0692
 Frc consts  --      1.3500                 1.4071                 1.4011
 IR Inten    --     10.5800                 8.5827                 8.5392

                     79                     80                     81
                      A                      A                      A
 Frequencies --   1499.1843              1511.4855              1520.2950
 Red. masses --      1.0923                 2.2085                 1.1377
 Frc consts  --      1.4464                 2.9727                 1.5493
 IR Inten    --      7.5750                27.6142                 1.1644

                     82                     83                     84
                      A                      A                      A
 Frequencies --   1619.6123              1628.1597              1636.4665
 Red. masses --      1.6842                 1.1677                 1.1544
 Frc consts  --      2.6030                 1.8238                 1.8214
 IR Inten    --    104.1639                95.6072                26.9023

                     85                     86                     87
                      A                      A                      A
 Frequencies --   1658.1158              1684.8066              1697.5516
 Red. masses --      1.1034                 1.1071                 4.9152
 Frc consts  --      1.7874                 1.8516                 8.3452
 IR Inten    --      7.4375                 6.0838                11.6503

                     88                     89                     90
                      A                      A                      A
 Frequencies --   1717.3675              2866.5182              2961.4267
 Red. masses --      2.6128                 1.1051                 1.0778
 Frc consts  --      4.5403                 5.3503                 5.5692
 IR Inten    --      6.6411              3001.6011                35.0365

                     91                     92                     93
                      A                      A                      A
 Frequencies --   2965.5543              2972.4423              3085.9772
 Red. masses --      1.0763                 1.0549                 1.0642
 Frc consts  --      5.5771                 5.4916                 5.9713
 IR Inten    --     39.8296                81.3859                15.5235

                     94                     95                     96
                      A                      A                      A
 Frequencies --   3087.4858              3093.1418              3118.9987
 Red. masses --      1.0824                 1.0633                 1.0915
 Frc consts  --      6.0790                 5.9937                 6.2561
 IR Inten    --     31.4347                19.7103                25.2474

                     97                     98                     99
                      A                      A                      A
 Frequencies --   3140.8241              3141.3786              3158.7727
 Red. masses --      1.1048                 1.1021                 1.1048
 Frc consts  --      6.4215                 6.4081                 6.4948
 IR Inten    --      7.1254                19.6231                25.2493

                    100                    101                    102
                      A                      A                      A
 Frequencies --   3207.7797              3244.5830              3252.0554
 Red. masses --      1.0923                 1.0925                 1.0951
 Frc consts  --      6.6220                 6.7763                 6.8237
 IR Inten    --      0.5551                 1.3777                 9.9455

                    103                    104                    105
                      A                      A                      A
 Frequencies --   3259.2055              3318.4623              3491.8111
 Red. masses --      1.1006                 1.0652                 1.0625
 Frc consts  --      6.8883                 6.9115                 7.6327
 IR Inten    --      1.1460              1685.9977               852.1142

                    106                    107                    108
                      A                      A                      A
 Frequencies --   3653.5882              3881.3853              3952.7856
 Red. masses --      1.0593                 1.0451                 1.0694
 Frc consts  --      8.3311                 9.2769                 9.8449
 IR Inten    --    543.1696                24.2893               100.6592

                    109                    110                    111
                      A                      A                      A
 Frequencies --   3953.7763              3955.1296              3988.8014
 Red. masses --      1.0675                 1.0673                 1.0830
 Frc consts  --      9.8323                 9.8369                10.1524
 IR Inten    --     72.9956               102.8064               110.4633

 - Thermochemistry -
 -------------------
 Temperature   298.150 Kelvin.  Pressure   1.00000 Atm.
 Atom     1 has atomic number  6 and mass  12.00000

 Molecular mass:   235.16578 amu.
 Principal axes and moments of inertia in atomic units:
                           1         2         3
     Eigenvalues --  2269.79287********************
           X            1.00000  -0.00175   0.00013
           Y            0.00175   0.99999  -0.00433
           Z           -0.00012   0.00433   0.99999
 This molecule is an asymmetric top.
 Rotational symmetry number  1.
 Warning -- assumption of classical behavior for rotation
           may cause significant error
 Rotational temperatures (Kelvin)      0.03816     0.00592     0.00562
 Rotational constants (GHZ):           0.79511     0.12327     0.11709
 Zero-point vibrational energy     893103.2 (Joules/Mol)
                                  213.45678 (Kcal/Mol)
 Warning -- explicit consideration of  35 degrees of freedom as
           vibrations may cause significant error
 Vibrational temperatures:      6.41    13.47    20.27    24.31    36.43
          (Kelvin)             41.35    52.55    59.60    79.81   136.49
                              139.68   174.95   222.84   236.21   256.46
                              274.40   289.72   307.17   322.78   344.51
                              354.58   375.83   397.52   415.66   427.85
                              513.33   530.05   592.83   600.20   619.51
                              683.38   761.75   829.79   844.76   891.45
                              924.08   950.27  1027.54  1042.66  1122.85
                             1203.00  1214.12  1255.84  1299.83  1350.04
                             1361.76  1387.30  1402.42  1410.35  1430.56
                             1485.69  1500.64  1529.72  1552.36  1563.35
                             1591.93  1636.06  1644.33  1699.24  1739.32
                             1745.85  1773.85  1794.20  1808.16  1828.73
                             1848.41  1877.05  1882.17  1927.90  1938.99
                             1963.69  1977.93  2003.25  2061.02  2091.85
                             2127.51  2133.53  2145.75  2156.99  2174.69
                             2187.37  2330.26  2342.56  2354.51  2385.66
                             2424.06  2442.40  2470.91  4124.28  4260.83
                             4266.77  4276.68  4440.03  4442.20  4450.34
                             4487.54  4518.95  4519.74  4544.77  4615.28
                             4668.23  4678.98  4689.27  4774.53  5023.94
                             5256.70  5584.45  5687.18  5688.60  5690.55
                             5739.00

 Zero-point correction=                           0.340165 (Hartree/Particle)
 Thermal correction to Energy=                    0.363999
 Thermal correction to Enthalpy=                  0.364944
 Thermal correction to Gibbs Free Energy=         0.277831
 Sum of electronic and zero-point Energies=           -804.682647
 Sum of electronic and thermal Energies=              -804.658812
 Sum of electronic and thermal Enthalpies=            -804.657868
 Sum of electronic and thermal Free Energies=         -804.744981

                     E (Thermal)             CV                S
                      KCal/Mol        Cal/Mol-Kelvin    Cal/Mol-Kelvin
 Total                  228.413             80.459            183.344
 Electronic               0.000              0.000              0.000
 Translational            0.889              2.981             42.267
 Rotational               0.889              2.981             34.592
 Vibrational            226.636             74.497            106.484
 Vibration     1          0.593              1.987              9.617
 Vibration     2          0.593              1.987              8.142
 Vibration     3          0.593              1.986              7.330
 Vibration     4          0.593              1.986              6.969
 Vibration     5          0.593              1.985              6.166
 Vibration     6          0.593              1.984              5.914
 Vibration     7          0.594              1.982              5.439
 Vibration     8          0.594              1.981              5.190
 Vibration     9          0.596              1.975              4.612
 Vibration    10          0.603              1.953              3.557
 Vibration    11          0.603              1.951              3.512
 Vibration    12          0.609              1.931              3.075
 Vibration    13          0.620              1.897              2.611
 Vibration    14          0.623              1.886              2.501
 Vibration    15          0.629              1.869              2.347
 Vibration    16          0.634              1.853              2.221
 Vibration    17          0.638              1.838              2.121
 Vibration    18          0.644              1.820              2.014
 Vibration    19          0.649              1.804              1.924
 Vibration    20          0.657              1.780              1.807
 Vibration    21          0.661              1.769              1.756
 Vibration    22          0.669              1.744              1.654
 Vibration    23          0.678              1.717              1.557
 Vibration    24          0.685              1.694              1.480
 Vibration    25          0.691              1.679              1.432
 Vibration    26          0.732              1.561              1.136
 Vibration    27          0.741              1.537              1.086
 Vibration    28          0.776              1.444              0.919
 Vibration    29          0.780              1.433              0.902
 Vibration    30          0.792              1.404              0.857
 Vibration    31          0.832              1.306              0.724
 Vibration    32          0.884              1.185              0.588
 Vibration    33          0.933              1.082              0.491
 Vibration    34          0.944              1.059              0.472
 Vibration    35          0.980              0.991              0.417

                           ! Non-Optimized Parameters !
 Normal termination of Gaussian 16 at Fri Jan 27 15:26:34 2023.
