 Gaussian 16, Revision A.03,
 Gaussian 16:  ES64L-G16RevA.03 25-Dec-2016

 ---------------------------------------------
 # wB97XD/aug-cc-pVDZ opt freq temperature=180
 ---------------------------------------------

 --------
 Nicotine
 --------
 Symbolic Z-matrix:
 Charge =  1 Multiplicity = 1

 SCF Done:  E(RwB97XD) =  -805.035569951     A.U. after   15 cycles
 SCF Done:  E(RwB97XD) =  -805.035569717     A.U. after    8 cycles
 SCF Done:  E(RwB97XD) =  -805.035566308     A.U. after   10 cycles
 SCF Done:  E(RwB97XD) =  -805.035569724     A.U. after   10 cycles
 SCF Done:  E(RwB97XD) =  -805.035569932     A.U. after    8 cycles
 SCF Done:  E(RwB97XD) =  -805.035569107     A.U. after   10 cycles
 SCF Done:  E(RwB97XD) =  -805.035569874     A.U. after   10 cycles
 SCF Done:  E(RwB97XD) =  -805.035569951     A.U. after    8 cycles
 Optimization completed.
    -- Stationary point found.
 Normal termination of Gaussian 16 at Mon Nov 15 13:56:25 2021.

 ----------------------------------------------------------------------
 #N Geom=AllCheck Guess=TCheck SCRF=Check GenChk RwB97XD/Aug-CC-pVDZ Fr
 eq
 ----------------------------------------------------------------------

 Structure from the checkpoint file:  "/gscratch/scrubbed/gds001/Gau-3619.chk"
 --------
 Nicotine
 --------
 Charge =  1 Multiplicity = 1

                         Standard orientation:
 ---------------------------------------------------------------------
 Center     Atomic      Atomic             Coordinates (Angstroms)
 Number     Number       Type             X           Y           Z
 ---------------------------------------------------------------------
      1          7           0        2.318423   -0.358216    0.633477
      2          6           0        1.954482    0.429526   -0.603921
      3          6           0        1.817010   -0.671484   -1.662827
      4          6           0        2.803441   -1.783224   -1.229671
      5          6           0        3.318458   -1.359537    0.152919
      6          6           0        0.769783    1.332124   -0.379631
      7          6           0       -0.513472    0.804559   -0.229407
      8          7           0       -1.599714    1.545279   -0.008684
      9          6           0       -1.449879    2.871288    0.060332
     10          6           0       -0.216376    3.503207   -0.084924
     11          6           0        0.910987    2.718514   -0.304745
     12          8           0        0.425242   -2.113062    1.403999
     13          8           0       -1.359121   -2.474737   -0.509607
     14          8           0       -3.243805   -0.781636    0.207482
     15          1           0        4.288207   -0.850311    0.098518
     16          1           0        3.638835   -1.890449   -1.928022
     17          1           0        2.293078   -2.749327   -1.170957
     18          1           0        0.791178   -1.055139   -1.684067
     19          1           0        2.037530   -0.266825   -2.654867
     20          1           0        3.377590   -2.172260    0.882344
     21          1           0        2.841104    1.044024   -0.815813
     22          1           0       -0.681167   -0.269632   -0.294138
     23          1           0       -2.355241    3.452794    0.236623
     24          1           0       -0.145887    4.587700   -0.028070
     25          1           0        1.890564    3.184049   -0.424590
     26          6           0        2.769150    0.454107    1.780746
     27          1           0        1.480315   -0.917407    0.941934
     28          1           0        0.003164   -2.181108    2.263549
     29          1           0       -0.267536   -2.354439    0.738400
     30          1           0       -2.971669    0.150759    0.145473
     31          1           0       -4.211677   -0.809388    0.133251
     32          1           0       -2.164134   -1.930832   -0.308038
     33          1           0       -1.667827   -3.322913   -0.834951
     34          8           0       -6.027564   -0.848634    0.038449
     35          1           0       -6.570813   -0.940764   -0.748097
     36          1           0       -6.610964   -1.013847    0.783307
     37          1           0        3.648211    1.037862    1.486491
     38          1           0        3.027677   -0.214907    2.607019
     39          1           0        1.958974    1.122987    2.085328
 ---------------------------------------------------------------------

 SCF Done:  E(RwB97XD) =  -805.035569951     A.U. after    1 cycles

 The electronic state is 1-A.
 Alpha  occ. eigenvalues --  -19.39161 -19.38352 -19.37501 -19.34831 -14.68169
 Alpha  occ. eigenvalues --  -14.57527 -10.49150 -10.47779 -10.47712 -10.45626
 Alpha  occ. eigenvalues --  -10.45483 -10.44502 -10.44446 -10.43071 -10.43017
 Alpha  occ. eigenvalues --  -10.42825  -1.25124  -1.23488  -1.22685  -1.21542
 Alpha  occ. eigenvalues --   -1.18924  -1.17311  -1.05790  -1.03785  -1.00609
 Alpha  occ. eigenvalues --   -0.96103  -0.93936  -0.88390  -0.85138  -0.84486
 Alpha  occ. eigenvalues --   -0.82472  -0.77187  -0.74874  -0.74615  -0.73414
 Alpha  occ. eigenvalues --   -0.73146  -0.72507  -0.71427  -0.70566  -0.68948
 Alpha  occ. eigenvalues --   -0.68776  -0.65750  -0.65011  -0.64581  -0.62458
 Alpha  occ. eigenvalues --   -0.62116  -0.61717  -0.61602  -0.60557  -0.60301
 Alpha  occ. eigenvalues --   -0.59485  -0.58221  -0.57461  -0.57113  -0.55949
 Alpha  occ. eigenvalues --   -0.54588  -0.54261  -0.52710  -0.51321  -0.51258
 Alpha  occ. eigenvalues --   -0.49348  -0.48464  -0.46812  -0.46076
 Alpha virt. eigenvalues --   -0.08929  -0.07982  -0.06404  -0.05334  -0.04701
 Alpha virt. eigenvalues --   -0.04538  -0.03719  -0.02940  -0.02847  -0.02449
 Alpha virt. eigenvalues --   -0.02168  -0.01787  -0.00881  -0.00755  -0.00599

 Mulliken charges:
               1
     1  N   -1.125798
     2  C    0.951021
     3  C    1.111594
     4  C    0.759203
     5  C    1.273166
     6  C    0.722182
     7  C    1.084628
     8  N   -0.392101
     9  C    0.239586
    10  C    0.563770
    11  C    1.269119
    12  O   -0.413729
    13  O   -0.565176
    14  O   -0.433730
    15  H   -0.486663
    16  H   -0.231468
    17  H   -0.271969
    18  H   -0.396419
    19  H   -0.494894
    20  H   -0.497595
    21  H   -0.926129
    22  H   -1.136783
    23  H   -0.577982
    24  H   -0.615111
    25  H   -0.899142
    26  C    1.123835
    27  H    0.220492
    28  H    0.177253
    29  H    0.280757
    30  H    0.238551
    31  H    0.248490
    32  H    0.384587
    33  H    0.188858
    34  O   -0.307715
    35  H    0.148467
    36  H    0.140332
    37  H   -0.125851
    38  H   -0.119641
    39  H   -0.107994
 Sum of Mulliken charges =   1.00000

 Dipole moment (field-independent basis, Debye):
    X=              2.1400    Y=             -0.3453    Z=              1.1593  Tot=              2.4582
 Quadrupole moment (field-independent basis, Debye-Ang):
   XX=            -20.6211   YY=            -69.4051   ZZ=            -85.9080
   XY=              7.1120   XZ=              2.9532   YZ=              1.2641

  Exact polarizability: 179.552 -10.343 175.727  -2.265   4.805 127.315
 Approx polarizability: 186.997  -2.485 186.929  -4.831   3.964 146.010

                      1                      2                      3
                      A                      A                      A
 Frequencies --     15.9512                22.3253                35.5428
 Red. masses --      4.5255                 5.4778                 3.9974
 Frc consts  --      0.0007                 0.0016                 0.0030
 IR Inten    --      3.4507                 1.6273                 2.0655

                      4                      5                      6
                      A                      A                      A
 Frequencies --     41.2078                47.9235                61.0018
 Red. masses --      4.6486                 4.1859                 3.0237
 Frc consts  --      0.0047                 0.0057                 0.0066
 IR Inten    --      0.9408                 2.9568                 1.0792

                      7                      8                      9
                      A                      A                      A
 Frequencies --     63.7000                86.4687                93.9327
 Red. masses --      3.1900                 5.0726                 2.7638
 Frc consts  --      0.0076                 0.0223                 0.0144
 IR Inten    --      0.5115                 2.4274                20.3808

                     10                     11                     12
                      A                      A                      A
 Frequencies --     99.9281               105.2521               124.6875
 Red. masses --      1.2486                 3.9132                 1.0859
 Frc consts  --      0.0073                 0.0255                 0.0099
 IR Inten    --     47.6802                 4.9263               153.8068

                     13                     14                     15
                      A                      A                      A
 Frequencies --    135.0041               144.1143               201.5233
 Red. masses --      4.7286                 2.3414                 4.4608
 Frc consts  --      0.0508                 0.0287                 0.1067
 IR Inten    --      6.1880                 2.7225                33.5242

                     16                     17                     18
                      A                      A                      A
 Frequencies --    211.4275               215.5344               235.6742
 Red. masses --      1.9416                 1.6566                 3.1010
 Frc consts  --      0.0511                 0.0453                 0.1015
 IR Inten    --      5.7094                15.0587                11.0542

                     19                     20                     21
                      A                      A                      A
 Frequencies --    239.0299               259.3968               261.8473
 Red. masses --      1.2049                 2.6674                 1.2961
 Frc consts  --      0.0406                 0.1057                 0.0524
 IR Inten    --      1.2574                 2.9570                87.5092

                     22                     23                     24
                      A                      A                      A
 Frequencies --    301.4423               305.6553               329.3250
 Red. masses --      2.9561                 1.2749                 4.1788
 Frc consts  --      0.1583                 0.0702                 0.2670
 IR Inten    --     62.9692                50.0196                 0.4483

                     25                     26                     27
                      A                      A                      A
 Frequencies --    346.5567               386.2099               412.4676
 Red. masses --      5.4620                 2.9405                 3.0851
 Frc consts  --      0.3865                 0.2584                 0.3092
 IR Inten    --     23.4157                 0.5044                 0.4160

                     28                     29                     30
                      A                      A                      A
 Frequencies --    431.0898               521.9062               535.3304
 Red. masses --      2.9018                 1.1127                 2.7691
 Frc consts  --      0.3177                 0.1786                 0.4676
 IR Inten    --      7.3046                34.5374                11.5632

                     31                     32                     33
                      A                      A                      A
 Frequencies --    555.5844               574.2774               619.7988
 Red. masses --      1.8022                 1.4827                 1.1230
 Frc consts  --      0.3278                 0.2881                 0.2542
 IR Inten    --     29.5572                17.7968                71.2838

                     34                     35                     36
                      A                      A                      A
 Frequencies --    631.9927               649.7469               677.5065
 Red. masses --      3.7718                 4.6555                 3.7024
 Frc consts  --      0.8876                 1.1580                 1.0013
 IR Inten    --      1.6891                 9.3110                13.7260

                     37                     38                     39
                      A                      A                      A
 Frequencies --    692.6423               732.6517               736.1200
 Red. masses --      1.1958                 1.0961                 1.7608
 Frc consts  --      0.3380                 0.3466                 0.5622
 IR Inten    --    100.0379               121.0065                12.4296

                     40                     41                     42
                      A                      A                      A
 Frequencies --    791.0958               814.7622               834.6729
 Red. masses --      1.3391                 1.9274                 1.2127
 Frc consts  --      0.4938                 0.7538                 0.4978
 IR Inten    --      2.2563                 1.5068               132.5348

                     43                     44                     45
                      A                      A                      A
 Frequencies --    841.5619               916.5435               931.8997
 Red. masses --      1.5074                 3.3065                 2.3254
 Frc consts  --      0.6290                 1.6365                 1.1898
 IR Inten    --     34.7249                 6.8672                24.1532

                     46                     47                     48
                      A                      A                      A
 Frequencies --    944.0030               950.1380               983.2006
 Red. masses --      1.3215                 1.6658                 1.2724
 Frc consts  --      0.6938                 0.8860                 0.7247
 IR Inten    --     32.9873                25.9274                21.7679

                     49                     50                     51
                      A                      A                      A
 Frequencies --    988.1338              1001.8396              1030.7882
 Red. masses --      1.7290                 1.6016                 1.4381
 Frc consts  --      0.9947                 0.9471                 0.9003
 IR Inten    --      7.7583                 2.6328                 0.2519

                     52                     53                     54
                      A                      A                      A
 Frequencies --   1043.6785              1054.8417              1062.6091
 Red. masses --      1.8480                 4.7231                 2.6981
 Frc consts  --      1.1860                 3.0964                 1.7950
 IR Inten    --     16.2387                14.1018                 4.8968

                     55                     56                     57
                      A                      A                      A
 Frequencies --   1087.5868              1104.6958              1133.1893
 Red. masses --      2.2389                 2.2496                 1.3401
 Frc consts  --      1.5603                 1.6175                 1.0139
 IR Inten    --      1.8051                 2.3805                 2.9963

                     58                     59                     60
                      A                      A                      A
 Frequencies --   1154.7012              1157.9148              1212.5816
 Red. masses --      1.4340                 2.6915                 1.7506
 Frc consts  --      1.1265                 2.1261                 1.5165
 IR Inten    --      5.0828                17.9344                 1.6490

                     61                     62                     63
                      A                      A                      A
 Frequencies --   1222.9171              1237.0276              1247.2263
 Red. masses --      1.4759                 1.6563                 1.3077
 Frc consts  --      1.3005                 1.4933                 1.1986
 IR Inten    --      8.9610                 2.3851                11.2366

                     64                     65                     66
                      A                      A                      A
 Frequencies --   1270.1641              1287.7135              1304.0680
 Red. masses --      1.5150                 1.2235                 1.7616
 Frc consts  --      1.4401                 1.1953                 1.7650
 IR Inten    --      2.2511                 3.4506                 0.8912

                     67                     68                     69
                      A                      A                      A
 Frequencies --   1317.2859              1337.6783              1372.1639
 Red. masses --      2.6586                 1.3887                 1.2562
 Frc consts  --      2.7180                 1.4641                 1.3935
 IR Inten    --      1.4915                 1.1767                 0.9055

                     70                     71                     72
                      A                      A                      A
 Frequencies --   1380.2251              1382.9742              1410.1336
 Red. masses --      1.5114                 1.3452                 1.5188
 Frc consts  --      1.6964                 1.5159                 1.7793
 IR Inten    --      6.9722                 2.6711                 1.9690

                     73                     74                     75
                      A                      A                      A
 Frequencies --   1452.4458              1480.0882              1481.5448
 Red. masses --      1.1841                 1.7573                 1.2099
 Frc consts  --      1.4718                 2.2682                 1.5647
 IR Inten    --      2.5076                18.6442                12.8164

                     76                     77                     78
                      A                      A                      A
 Frequencies --   1486.6847              1491.4533              1497.6026
 Red. masses --      1.0530                 1.0803                 1.1338
 Frc consts  --      1.3712                 1.4158                 1.4983
 IR Inten    --      5.7472                 6.9573                50.8139

                     79                     80                     81
                      A                      A                      A
 Frequencies --   1507.1807              1520.2543              1538.6285
 Red. masses --      1.1348                 1.1174                 2.1799
 Frc consts  --      1.5188                 1.5216                 3.0406
 IR Inten    --     32.6708                 5.5378                 7.2830

                     82                     83                     84
                      A                      A                      A
 Frequencies --   1605.2849              1630.2432              1657.4183
 Red. masses --      1.1370                 1.0872                 1.6067
 Frc consts  --      1.7262                 1.7024                 2.6004
 IR Inten    --     18.7351                66.7179               118.9067

                     85                     86                     87
                      A                      A                      A
 Frequencies --   1663.1985              1672.2799              1685.3040
 Red. masses --      1.8086                 1.2467                 4.0436
 Frc consts  --      2.9477                 2.0542                 6.7667
 IR Inten    --     13.3093                16.8995                40.5506

                     88                     89                     90
                      A                      A                      A
 Frequencies --   1711.8508              2943.5318              3077.4613
 Red. masses --      1.0885                 1.0901                 1.0776
 Frc consts  --      1.8794                 5.5648                 6.0128
 IR Inten    --     15.6931              1064.8527                 1.6040

                     91                     92                     93
                      A                      A                      A
 Frequencies --   3081.1137              3101.3125              3106.9670
 Red. masses --      1.0414                 1.0633                 1.0627
 Frc consts  --      5.8248                 6.0254                 6.0443
 IR Inten    --      3.0299                 4.0582                 5.5946

                     94                     95                     96
                      A                      A                      A
 Frequencies --   3116.9688              3159.4544              3172.3141
 Red. masses --      1.0634                 1.1064                 1.1059
 Frc consts  --      6.0868                 6.5073                 6.5575
 IR Inten    --      9.4601                 1.3084                 3.0765

                     97                     98                     99
                      A                      A                      A
 Frequencies --   3181.5278              3183.1801              3191.5892
 Red. masses --      1.1071                 1.1068                 1.1071
 Frc consts  --      6.6027                 6.6078                 6.6442
 IR Inten    --      0.6590                 4.2216                 1.1250

                    100                    101                    102
                      A                      A                      A
 Frequencies --   3197.8990              3209.4445              3231.3228
 Red. masses --      1.0917                 1.0921                 1.0909
 Frc consts  --      6.5776                 6.6276                 6.7114
 IR Inten    --      3.5558                 6.8316                 6.8330

                    103                    104                    105
                      A                      A                      A
 Frequencies --   3239.9915              3263.1463              3363.9394
 Red. masses --      1.0980                 1.0673                 1.0645
 Frc consts  --      6.7913                 6.6956                 7.0971
 IR Inten    --      3.2574              1192.0309               630.3308

                    106                    107                    108
                      A                      A                      A
 Frequencies --   3645.5305              3726.1708              3882.9823
 Red. masses --      1.0504                 1.0818                 1.0451
 Frc consts  --      8.2251                 8.8493                 9.2845
 IR Inten    --    229.1283              1271.5341                18.9476

                    109                    110                    111
                      A                      A                      A
 Frequencies --   3937.8609              3947.9464              3991.1134
 Red. masses --      1.0666                 1.0668                 1.0830
 Frc consts  --      9.7444                 9.7969                10.1644
 IR Inten    --     96.1284                88.4145               106.1316

 - Thermochemistry -
 -------------------
 Temperature   180.000 Kelvin.  Pressure   1.00000 Atm.
 Atom     1 has atomic number  7 and mass  14.00307

 Molecular mass:   235.16578 amu.
 Principal axes and moments of inertia in atomic units:
                           1         2         3
     Eigenvalues --  3328.996116225.928528279.55502
           X            0.99998   0.00599   0.00217
           Y           -0.00601   0.99995   0.00817
           Z           -0.00212  -0.00818   0.99996
 This molecule is an asymmetric top.
 Rotational symmetry number  1.
 Warning -- assumption of classical behavior for rotation
           may cause significant error
 Rotational temperatures (Kelvin)      0.02602     0.01391     0.01046
 Rotational constants (GHZ):           0.54213     0.28988     0.21798
 Zero-point vibrational energy     903097.0 (Joules/Mol)
                                  215.84536 (Kcal/Mol)
 Warning -- explicit consideration of  25 degrees of freedom as
           vibrations may cause significant error
 Vibrational temperatures:     22.95    32.12    51.14    59.29    68.95
          (Kelvin)             87.77    91.65   124.41   135.15   143.77
                              151.43   179.40   194.24   207.35   289.95
                              304.20   310.11   339.08   343.91   373.21
                              376.74   433.71   439.77   473.83   498.62
                              555.67   593.45   620.24   750.91   770.22
                              799.36   826.26   891.75   909.30   934.84
                              974.78   996.56  1054.12  1059.11  1138.21
                             1172.26  1200.91  1210.82  1318.70  1340.80
                             1358.21  1367.04  1414.61  1421.70  1441.42
                             1483.07  1501.62  1517.68  1528.86  1564.79
                             1589.41  1630.41  1661.36  1665.98  1744.63
                             1759.50  1779.81  1794.48  1827.48  1852.73
                             1876.26  1895.28  1924.62  1974.24  1985.84
                             1989.79  2028.87  2089.75  2129.52  2131.61
                             2139.01  2145.87  2154.72  2168.50  2187.31
                             2213.74  2309.65  2345.56  2384.66  2392.97
                             2406.04  2424.78  2462.97  4235.09  4427.78
                             4433.04  4462.10  4470.23  4484.62  4545.75
                             4564.25  4577.51  4579.89  4591.98  4601.06
                             4617.67  4649.15  4661.63  4694.94  4839.96
                             5245.11  5361.13  5586.75  5665.70  5680.21
                             5742.32

 Zero-point correction=                           0.343971 (Hartree/Particle)
 Thermal correction to Energy=                    0.353891
 Thermal correction to Enthalpy=                  0.354461
 Thermal correction to Gibbs Free Energy=         0.317048
 Sum of electronic and zero-point Energies=           -804.691598
 Sum of electronic and thermal Energies=              -804.681679
 Sum of electronic and thermal Enthalpies=            -804.681109
 Sum of electronic and thermal Free Energies=         -804.718522

                     E (Thermal)             CV                S
                      KCal/Mol        Cal/Mol-Kelvin    Cal/Mol-Kelvin
 Total                  222.070             55.625            130.430
 Electronic               0.000              0.000              0.000
 Translational            0.537              2.981             39.760
 Rotational               0.537              2.981             32.002
 Vibrational            220.997             49.663             58.668
 Vibration     1          0.358              1.985              6.081
 Vibration     2          0.359              1.982              5.415
 Vibration     3          0.360              1.974              4.495
 Vibration     4          0.361              1.969              4.203
 Vibration     5          0.362              1.963              3.906
 Vibration     6          0.365              1.948              3.434
 Vibration     7          0.365              1.945              3.350
 Vibration     8          0.372              1.910              2.760
 Vibration     9          0.374              1.896              2.603
 Vibration    10          0.377              1.885              2.486
 Vibration    11          0.379              1.874              2.388
 Vibration    12          0.387              1.831              2.074
 Vibration    13          0.392              1.805              1.930
 Vibration    14          0.396              1.781              1.812
 Vibration    15          0.432              1.608              1.242
 Vibration    16          0.439              1.575              1.165
 Vibration    17          0.442              1.561              1.135
 Vibration    18          0.458              1.491              0.999
 Vibration    19          0.460              1.479              0.978
 Vibration    20          0.478              1.406              0.860
 Vibration    21          0.480              1.397              0.847
 Vibration    22          0.516              1.252              0.660
 Vibration    23          0.520              1.236              0.643
 Vibration    24          0.544              1.150              0.554
 Vibration    25          0.562              1.087              0.497

 Optimization completed.
    -- Stationary point found.
 Normal termination of Gaussian 16 at Mon Nov 15 15:02:56 2021.
