 Gaussian 16, Revision A.03,
 Gaussian 16:  ES64L-G16RevA.03 25-Dec-2016

 -----------------------------
 # wB97XD/aug-cc-pVDZ opt freq
 -----------------------------

 ----
 blah
 ----
 Symbolic Z-matrix:
 Charge =  1 Multiplicity = 1

 SCF Done:  E(RwB97XD) =  -805.020591710     A.U. after   14 cycles
 SCF Done:  E(RwB97XD) =  -805.021380092     A.U. after   15 cycles
 SCF Done:  E(RwB97XD) =  -805.020280114     A.U. after   15 cycles
 SCF Done:  E(RwB97XD) =  -805.021796797     A.U. after   13 cycles
 SCF Done:  E(RwB97XD) =  -805.022101872     A.U. after   15 cycles
 SCF Done:  E(RwB97XD) =  -805.021692636     A.U. after   15 cycles
 SCF Done:  E(RwB97XD) =  -805.022391136     A.U. after   15 cycles
 SCF Done:  E(RwB97XD) =  -805.022428457     A.U. after   12 cycles
 SCF Done:  E(RwB97XD) =  -805.022548700     A.U. after   12 cycles
 SCF Done:  E(RwB97XD) =  -805.022610197     A.U. after   11 cycles
 SCF Done:  E(RwB97XD) =  -805.022763916     A.U. after    9 cycles
 SCF Done:  E(RwB97XD) =  -805.022765335     A.U. after    9 cycles
 SCF Done:  E(RwB97XD) =  -805.022769405     A.U. after   10 cycles
 SCF Done:  E(RwB97XD) =  -805.022767467     A.U. after    9 cycles
 SCF Done:  E(RwB97XD) =  -805.022770530     A.U. after   10 cycles
 SCF Done:  E(RwB97XD) =  -805.022769559     A.U. after   10 cycles
 SCF Done:  E(RwB97XD) =  -805.022768568     A.U. after    8 cycles
 SCF Done:  E(RwB97XD) =  -805.022769419     A.U. after    8 cycles
 SCF Done:  E(RwB97XD) =  -805.022769743     A.U. after    8 cycles
 Optimization completed.
    -- Stationary point found.
 Normal termination of Gaussian 16 at Fri Jan 27 14:48:09 2023.

 ----------------------------------------------------------------------
 #N Geom=AllCheck Guess=TCheck SCRF=Check GenChk RwB97XD/Aug-CC-pVDZ Fr
 eq
 ----------------------------------------------------------------------

 Structure from the checkpoint file:  "/gscratch/scrubbed/gds001/Gau-26713.chk"
 ----
 blah
 ----
 Charge =  1 Multiplicity = 1

                         Standard orientation:
 ---------------------------------------------------------------------
 Center     Atomic      Atomic             Coordinates (Angstroms)
 Number     Number       Type             X           Y           Z
 ---------------------------------------------------------------------
      1          6           0       -1.657338    1.356317   -1.994237
      2          6           0       -1.730032    0.548242   -0.855974
      3          6           0       -0.546486   -0.013469   -0.395831
      4          7           0        0.615199    0.223417   -1.021212
      5          6           0        0.704046    1.003139   -2.107791
      6          6           0       -0.436704    1.591797   -2.624397
      7          6           0       -3.030880    0.320813   -0.117290
      8          7           0       -2.993815   -0.902885    0.672633
      9          6           0       -3.882724   -0.696451    1.812419
     10          6           0       -3.557134    0.727903    2.241954
     11          6           0       -3.348935    1.456276    0.901058
     12          8           0        2.818860   -0.836064   -0.144712
     13          8           0        3.643014   -3.377034   -0.880701
     14          1           0       -3.685484   -1.446614    2.587770
     15          1           0       -4.350896    1.181368    2.844610
     16          1           0       -2.633494    0.734981    2.833669
     17          1           0       -4.259043    1.981843    0.590594
     18          1           0       -2.544791    2.199083    0.952495
     19          1           0       -4.947946   -0.782317    1.516138
     20          1           0       -3.837570    0.280211   -0.876270
     21          1           0       -0.523741   -0.664765    0.474757
     22          1           0        1.696583    1.126845   -2.534032
     23          1           0       -0.368360    2.219815   -3.509547
     24          1           0       -2.567459    1.805652   -2.393460
     25          6           0       -3.271385   -2.104496   -0.091557
     26          1           0        1.508630   -0.227618   -0.643682
     27          1           0        3.157448   -1.721773   -0.360461
     28          1           0        3.394760   -0.430437    0.537602
     29          1           0        4.364528   -3.541613   -1.493542
     30          1           0        3.605033   -4.149247   -0.310229
     31          8           0        4.288956    0.405851    1.733403
     32          1           0        5.137479    0.855299    1.568005
     33          1           0        4.296917    0.153406    2.658802
     34          1           0       -3.199288   -2.981810    0.562128
     35          1           0       -2.534915   -2.222514   -0.898111
     36          1           0       -4.281445   -2.088979   -0.546282
     37          8           0        6.674977    1.726142    1.242158
     38          1           0        7.550202    1.331324    1.211189
     39          1           0        6.812138    2.652559    1.456605
 ---------------------------------------------------------------------

 SCF Done:  E(RwB97XD) =  -805.022769743     A.U. after    1 cycles

 The electronic state is 1-A.
 Alpha  occ. eigenvalues --  -19.39727 -19.39315 -19.36953 -19.36376 -14.65430
 Alpha  occ. eigenvalues --  -14.54342 -10.49283 -10.48608 -10.46097 -10.45354
 Alpha  occ. eigenvalues --  -10.45324 -10.44212 -10.40802 -10.40789 -10.39727
 Alpha  occ. eigenvalues --  -10.38534  -1.24121  -1.23838  -1.23688  -1.21570
 Alpha  occ. eigenvalues --   -1.20151  -1.14752  -1.06463  -1.02740  -0.98397
 Alpha  occ. eigenvalues --   -0.93924  -0.88768  -0.87618  -0.86473  -0.80634
 Alpha  occ. eigenvalues --   -0.77718  -0.76763  -0.74423  -0.74058  -0.73197
 Alpha  occ. eigenvalues --   -0.72741  -0.72489  -0.71954  -0.69210  -0.67975
 Alpha  occ. eigenvalues --   -0.67319  -0.65866  -0.62995  -0.62873  -0.62648
 Alpha  occ. eigenvalues --   -0.61399  -0.60802  -0.59750  -0.59654  -0.57465
 Alpha  occ. eigenvalues --   -0.56479  -0.55391  -0.55036  -0.54367  -0.53520
 Alpha  occ. eigenvalues --   -0.52539  -0.52161  -0.51662  -0.51290  -0.50693
 Alpha  occ. eigenvalues --   -0.50375  -0.50233  -0.47336  -0.40356
 Alpha virt. eigenvalues --   -0.12332  -0.08992  -0.06027  -0.04729  -0.04635
 Alpha virt. eigenvalues --   -0.03807  -0.03305  -0.02802  -0.02427  -0.01931
 Alpha virt. eigenvalues --   -0.01708  -0.01328  -0.00765  -0.00719  -0.00618

 Mulliken charges:
               1
     1  C    1.113623
     2  C    0.772970
     3  C    0.730745
     4  N   -0.020807
     5  C    0.824556
     6  C    0.218082
     7  C    0.946613
     8  N   -0.423119
     9  C    1.200116
    10  C    0.600234
    11  C    0.952289
    12  O   -0.480565
    13  O   -0.333876
    14  H   -0.517902
    15  H   -0.275711
    16  H   -0.373692
    17  H   -0.360551
    18  H   -0.441496
    19  H   -0.440928
    20  H   -0.599014
    21  H   -1.008737
    22  H   -0.682103
    23  H   -0.562452
    24  H   -0.865194
    25  C    0.806861
    26  H    0.168275
    27  H    0.199856
    28  H    0.271781
    29  H    0.150202
    30  H    0.153229
    31  O   -0.381263
    32  H    0.228753
    33  H    0.135201
    34  H   -0.214667
    35  H   -0.294924
    36  H   -0.173127
    37  O   -0.316370
    38  H    0.147246
    39  H    0.145867
 Sum of Mulliken charges =   1.00000

 Dipole moment (field-independent basis, Debye):
    X=              7.0451    Y=              0.2460    Z=             -1.3357  Tot=              7.1748
 Quadrupole moment (field-independent basis, Debye-Ang):
   XX=              3.4106   YY=            -66.0387   ZZ=            -74.1015
   XY=             -4.0326   XZ=              9.9113   YZ=             -2.2934

  Exact polarizability: 184.737   0.870 149.464 -16.312 -14.256 159.879
 Approx polarizability: 187.849  -3.786 161.454  -7.347 -18.993 173.914

                      1                      2                      3
                      A                      A                      A
 Frequencies --      6.2879                12.0990                14.5021
 Red. masses --      4.9201                 4.2482                 2.7690
 Frc consts  --      0.0001                 0.0004                 0.0003
 IR Inten    --      0.1723                 0.4009                 0.7262

                      4                      5                      6
                      A                      A                      A
 Frequencies --     15.8016                21.8647                30.6901
 Red. masses --      4.9692                 3.8675                 4.1407
 Frc consts  --      0.0007                 0.0011                 0.0023
 IR Inten    --      2.6459                 0.2657                 0.2072

                      7                      8                      9
                      A                      A                      A
 Frequencies --     32.9053                42.8294                46.5918
 Red. masses --      5.6243                 4.7005                 6.5865
 Frc consts  --      0.0036                 0.0051                 0.0084
 IR Inten    --      1.6688                 0.4649                 4.3642

                     10                     11                     12
                      A                      A                      A
 Frequencies --     90.7422                94.2981               100.8352
 Red. masses --      1.0617                 3.7402                 1.0269
 Frc consts  --      0.0052                 0.0196                 0.0062
 IR Inten    --     42.3168                 0.3312                17.9090

                     13                     14                     15
                      A                      A                      A
 Frequencies --    123.0487               143.4648               172.9628
 Red. masses --      3.9259                 5.3696                 2.2445
 Frc consts  --      0.0350                 0.0651                 0.0396
 IR Inten    --      1.4504                27.3397                39.3183

                     16                     17                     18
                      A                      A                      A
 Frequencies --    174.1384               187.7860               204.7343
 Red. masses --      1.3858                 1.1434                 1.6803
 Frc consts  --      0.0248                 0.0238                 0.0415
 IR Inten    --    139.4392               178.7712                 0.7007

                     19                     20                     21
                      A                      A                      A
 Frequencies --    209.2019               217.3605               232.7157
 Red. masses --      1.5950                 2.4798                 1.0740
 Frc consts  --      0.0411                 0.0690                 0.0343
 IR Inten    --     64.4086                74.6801                15.7933

                     22                     23                     24
                      A                      A                      A
 Frequencies --    244.7229               246.6821               273.3176
 Red. masses --      1.0610                 1.1396                 3.0799
 Frc consts  --      0.0374                 0.0409                 0.1356
 IR Inten    --     58.9265                 1.6166                 2.9983

                     25                     26                     27
                      A                      A                      A
 Frequencies --    284.8916               297.1639               345.6992
 Red. masses --      5.1574                 3.8010                 4.6521
 Frc consts  --      0.2466                 0.1978                 0.3276
 IR Inten    --     31.1692                 2.2776                10.3330

                     28                     29                     30
                      A                      A                      A
 Frequencies --    364.2321               411.5859               419.6019
 Red. masses --      3.1000                 1.0500                 3.0722
 Frc consts  --      0.2423                 0.1048                 0.3187
 IR Inten    --     20.3338                13.1035                 1.8999

                     31                     32                     33
                      A                      A                      A
 Frequencies --    430.1315               536.7463               587.1104
 Red. masses --      3.1901                 3.9165                 2.5254
 Frc consts  --      0.3477                 0.6648                 0.5129
 IR Inten    --      0.9000                 2.3925                 0.5969

                     34                     35                     36
                      A                      A                      A
 Frequencies --    626.7237               644.5289               655.7276
 Red. masses --      4.2525                 4.2235                 3.3430
 Frc consts  --      0.9841                 1.0337                 0.8469
 IR Inten    --     23.0114                16.7353                 6.3683

                     37                     38                     39
                      A                      A                      A
 Frequencies --    689.8197               716.9064               720.3913
 Red. masses --      1.1265                 1.9970                 1.0535
 Frc consts  --      0.3158                 0.6047                 0.3221
 IR Inten    --     24.9301                44.8975               130.2607

                     40                     41                     42
                      A                      A                      A
 Frequencies --    739.5340               777.6825               837.6969
 Red. masses --      1.0436                 2.4048                 1.4983
 Frc consts  --      0.3363                 0.8569                 0.6195
 IR Inten    --     94.6374                 9.4753                35.3398

                     43                     44                     45
                      A                      A                      A
 Frequencies --    849.8891               868.8251               907.7124
 Red. masses --      1.0417                 2.0465                 1.7939
 Frc consts  --      0.4433                 0.9102                 0.8708
 IR Inten    --     71.1155                 5.6413                 7.5428

                     46                     47                     48
                      A                      A                      A
 Frequencies --    937.9913               965.2875               976.9575
 Red. masses --      3.2279                 2.0064                 1.9846
 Frc consts  --      1.6733                 1.1015                 1.1160
 IR Inten    --      8.9329                 4.0314                 5.5299

                     49                     50                     51
                      A                      A                      A
 Frequencies --    983.2255               996.7110              1032.5550
 Red. masses --      1.3110                 1.6478                 1.3823
 Frc consts  --      0.7467                 0.9645                 0.8683
 IR Inten    --      5.3140                 1.5696                 0.1912

                     52                     53                     54
                      A                      A                      A
 Frequencies --   1042.2997              1064.5605              1079.0221
 Red. masses --      3.8027                 2.1385                 1.7272
 Frc consts  --      2.4340                 1.4279                 1.1848
 IR Inten    --      6.5398                 5.7526                17.0752

                     55                     56                     57
                      A                      A                      A
 Frequencies --   1087.0766              1106.2320              1137.0558
 Red. masses --      2.1519                 1.9183                 1.2635
 Frc consts  --      1.4983                 1.3831                 0.9625
 IR Inten    --      3.0737                 9.5055                 4.9224

                     58                     59                     60
                      A                      A                      A
 Frequencies --   1142.7059              1183.6125              1208.2699
 Red. masses --      1.4960                 1.4240                 1.1809
 Frc consts  --      1.1509                 1.1754                 1.0158
 IR Inten    --      4.0298                 6.7179                 8.7019

                     61                     62                     63
                      A                      A                      A
 Frequencies --   1216.5390              1234.3038              1254.9246
 Red. masses --      1.6575                 1.9289                 1.7305
 Frc consts  --      1.4453                 1.7314                 1.6057
 IR Inten    --      4.2601                17.9513                10.2430

                     64                     65                     66
                      A                      A                      A
 Frequencies --   1274.9831              1283.8903              1305.2834
 Red. masses --      1.5219                 2.1537                 1.4889
 Frc consts  --      1.4577                 2.0916                 1.4946
 IR Inten    --      5.8753                31.9033                12.0428

                     67                     68                     69
                      A                      A                      A
 Frequencies --   1306.4199              1306.8151              1338.7788
 Red. masses --      1.1207                 1.2793                 1.4943
 Frc consts  --      1.1269                 1.2872                 1.5780
 IR Inten    --     22.6142                 8.9589                 7.6307

                     70                     71                     72
                      A                      A                      A
 Frequencies --   1347.5156              1363.4676              1377.8112
 Red. masses --      1.5038                 2.6784                 1.6780
 Frc consts  --      1.6088                 2.9337                 1.8768
 IR Inten    --      1.5595                18.6322                16.0306

                     73                     74                     75
                      A                      A                      A
 Frequencies --   1392.1773              1433.9063              1453.6279
 Red. masses --      1.7177                 1.7569                 1.2259
 Frc consts  --      1.9615                 2.1283                 1.5263
 IR Inten    --     11.8868                40.8293                 6.9948

                     76                     77                     78
                      A                      A                      A
 Frequencies --   1478.4663              1483.1342              1491.1485
 Red. masses --      1.0469                 1.0850                 1.0691
 Frc consts  --      1.3482                 1.4061                 1.4006
 IR Inten    --     11.0473                 7.5078                 8.2712

                     79                     80                     81
                      A                      A                      A
 Frequencies --   1500.9823              1512.8678              1520.2948
 Red. masses --      1.0917                 2.1180                 1.1682
 Frc consts  --      1.4491                 2.8561                 1.5908
 IR Inten    --      7.7163                31.1920                 1.1421

                     82                     83                     84
                      A                      A                      A
 Frequencies --   1620.1438              1626.1732              1630.4903
 Red. masses --      1.3629                 1.4824                 1.0996
 Frc consts  --      2.1078                 2.3097                 1.7224
 IR Inten    --     41.5103               107.1613                69.0644

                     85                     86                     87
                      A                      A                      A
 Frequencies --   1646.0830              1670.5574              1697.5871
 Red. masses --      1.1009                 1.1158                 4.3907
 Frc consts  --      1.7575                 1.8346                 7.4551
 IR Inten    --     14.6898                18.2118                 8.8120

                     88                     89                     90
                      A                      A                      A
 Frequencies --   1717.8977              2679.2140              2954.1067
 Red. masses --      2.7582                 1.1145                 1.0806
 Frc consts  --      4.7959                 4.7136                 5.5559
 IR Inten    --      7.5380              3470.3186                26.0308

                     91                     92                     93
                      A                      A                      A
 Frequencies --   2959.2313              2968.7466              3086.9643
 Red. masses --      1.0742                 1.0551                 1.0818
 Frc consts  --      5.5422                 5.4786                 6.0738
 IR Inten    --     59.6784                80.4887                30.8849

                     94                     95                     96
                      A                      A                      A
 Frequencies --   3088.8497              3094.7240              3120.6834
 Red. masses --      1.0617                 1.0650                 1.0908
 Frc consts  --      5.9685                 6.0096                 6.2590
 IR Inten    --     15.2963                21.0936                25.9292

                     97                     98                     99
                      A                      A                      A
 Frequencies --   3139.3751              3142.4655              3159.0078
 Red. masses --      1.1052                 1.1018                 1.1056
 Frc consts  --      6.4176                 6.4103                 6.5005
 IR Inten    --      6.6019                19.6693                25.5872

                    100                    101                    102
                      A                      A                      A
 Frequencies --   3208.5264              3244.5874              3248.1206
 Red. masses --      1.0922                 1.0927                 1.0947
 Frc consts  --      6.6246                 6.7774                 6.8045
 IR Inten    --      0.6595                 0.9633                 6.7499

                    103                    104                    105
                      A                      A                      A
 Frequencies --   3260.2711              3511.0793              3648.5868
 Red. masses --      1.1002                 1.0604                 1.0583
 Frc consts  --      6.8899                 7.7016                 8.3008
 IR Inten    --      1.0534              1161.2917               603.5931

                    106                    107                    108
                      A                      A                      A
 Frequencies --   3681.7986              3878.0006              3879.1406
 Red. masses --      1.0743                 1.0453                 1.0452
 Frc consts  --      8.5800                 9.2620                 9.2663
 IR Inten    --    788.3060                22.3541                25.1955

                    109                    110                    111
                      A                      A                      A
 Frequencies --   3955.5430              3983.8041              3986.0322
 Red. masses --      1.0696                 1.0828                 1.0830
 Frc consts  --      9.8604                10.1249                10.1377
 IR Inten    --     93.7006               104.9199               110.3070

 - Thermochemistry -
 -------------------
 Temperature   298.150 Kelvin.  Pressure   1.00000 Atm.
 Atom     1 has atomic number  6 and mass  12.00000

 Molecular mass:   235.16578 amu.
 Principal axes and moments of inertia in atomic units:
                           1         2         3
     Eigenvalues --  3504.28849********************
           X            1.00000   0.00174  -0.00062
           Y           -0.00160   0.98305   0.18333
           Z            0.00093  -0.18333   0.98305
 This molecule is an asymmetric top.
 Rotational symmetry number  1.
 Warning -- assumption of classical behavior for rotation
           may cause significant error
 Rotational temperatures (Kelvin)      0.02472     0.00783     0.00777
 Rotational constants (GHZ):           0.51501     0.16311     0.16196
 Zero-point vibrational energy     890983.9 (Joules/Mol)
                                  212.95026 (Kcal/Mol)
 Warning -- explicit consideration of  33 degrees of freedom as
           vibrations may cause significant error
 Vibrational temperatures:      9.05    17.41    20.87    22.73    31.46
          (Kelvin)             44.16    47.34    61.62    67.04   130.56
                              135.67   145.08   177.04   206.41   248.85
                              250.55   270.18   294.57   300.99   312.73
                              334.83   352.10   354.92   393.24   409.90
                              427.55   497.38   524.05   592.18   603.71
                              618.86   772.26   844.72   901.72   927.33
                              943.45   992.50  1031.47  1036.48  1064.02
                             1118.91  1205.26  1222.80  1250.05  1306.00
                             1349.56  1388.83  1405.62  1414.64  1434.04
                             1485.62  1499.64  1531.67  1552.47  1564.06
                             1591.62  1635.97  1644.10  1702.95  1738.43
                             1750.33  1775.89  1805.56  1834.42  1847.23
                             1878.01  1879.65  1880.22  1926.20  1938.77
                             1961.73  1982.36  2003.03  2063.07  2091.45
                             2127.18  2133.90  2145.43  2159.58  2176.68
                             2187.37  2331.03  2339.70  2345.91  2368.35
                             2403.56  2442.45  2471.67  3854.79  4250.30
                             4257.67  4271.36  4441.45  4444.17  4452.62
                             4489.97  4516.86  4521.31  4545.11  4616.35
                             4668.24  4673.32  4690.80  5051.66  5249.50
                             5297.29  5579.58  5581.22  5691.14  5731.81
                             5735.01

 Zero-point correction=                           0.339358 (Hartree/Particle)
 Thermal correction to Energy=                    0.363780
 Thermal correction to Enthalpy=                  0.364724
 Thermal correction to Gibbs Free Energy=         0.276383
 Sum of electronic and zero-point Energies=           -804.683412
 Sum of electronic and thermal Energies=              -804.658990
 Sum of electronic and thermal Enthalpies=            -804.658046
 Sum of electronic and thermal Free Energies=         -804.746386

                     E (Thermal)             CV                S
                      KCal/Mol        Cal/Mol-Kelvin    Cal/Mol-Kelvin
 Total                  228.275             81.223            185.928
 Electronic               0.000              0.000              0.000
 Translational            0.889              2.981             42.267
 Rotational               0.889              2.981             34.423
 Vibrational            226.498             75.261            109.238
 Vibration     1          0.593              1.987              8.933
 Vibration     2          0.593              1.987              7.632
 Vibration     3          0.593              1.986              7.273
 Vibration     4          0.593              1.986              7.102
 Vibration     5          0.593              1.985              6.457
 Vibration     6          0.594              1.984              5.784
 Vibration     7          0.594              1.983              5.646
 Vibration     8          0.595              1.980              5.124
 Vibration     9          0.595              1.979              4.957
 Vibration    10          0.602              1.956              3.644
 Vibration    11          0.603              1.953              3.569
 Vibration    12          0.604              1.948              3.438
 Vibration    13          0.610              1.930              3.052
 Vibration    14          0.616              1.910              2.757
 Vibration    15          0.626              1.876              2.403
 Vibration    16          0.627              1.874              2.390
 Vibration    17          0.632              1.857              2.250
 Vibration    18          0.640              1.833              2.090
 Vibration    19          0.642              1.827              2.051
 Vibration    20          0.646              1.815              1.981
 Vibration    21          0.653              1.791              1.858
 Vibration    22          0.660              1.772              1.768
 Vibration    23          0.661              1.768              1.754
 Vibration    24          0.676              1.723              1.575
 Vibration    25          0.683              1.702              1.504
 Vibration    26          0.691              1.679              1.433
 Vibration    27          0.724              1.584              1.186
 Vibration    28          0.738              1.546              1.104
 Vibration    29          0.776              1.445              0.921
 Vibration    30          0.782              1.428              0.893
 Vibration    31          0.791              1.405              0.858
 Vibration    32          0.892              1.169              0.572
 Vibration    33          0.944              1.059              0.472

                           ! Non-Optimized Parameters !
 Normal termination of Gaussian 16 at Fri Jan 27 15:40:04 2023.
