 Gaussian 16, Revision A.03,
 Gaussian 16:  ES64L-G16RevA.03 25-Dec-2016

 -----------------------------
 # wB97XD/aug-cc-pVDZ opt freq
 -----------------------------

 ----
 blah
 ----
 Symbolic Z-matrix:
 Charge =  1 Multiplicity = 1

 SCF Done:  E(RwB97XD) =  -805.031057631     A.U. after   15 cycles
 SCF Done:  E(RwB97XD) =  -805.031576705     A.U. after   15 cycles
 SCF Done:  E(RwB97XD) =  -805.031858738     A.U. after   14 cycles
 SCF Done:  E(RwB97XD) =  -805.032093899     A.U. after   11 cycles
 SCF Done:  E(RwB97XD) =  -805.032275190     A.U. after   11 cycles
 SCF Done:  E(RwB97XD) =  -805.032421756     A.U. after   13 cycles
 SCF Done:  E(RwB97XD) =  -805.032505642     A.U. after   11 cycles
 SCF Done:  E(RwB97XD) =  -805.032645326     A.U. after   12 cycles
 SCF Done:  E(RwB97XD) =  -805.032716935     A.U. after   11 cycles
 SCF Done:  E(RwB97XD) =  -805.032749456     A.U. after   12 cycles
 SCF Done:  E(RwB97XD) =  -805.032782395     A.U. after   11 cycles
 SCF Done:  E(RwB97XD) =  -805.032783137     A.U. after    9 cycles
 SCF Done:  E(RwB97XD) =  -805.032783984     A.U. after    9 cycles
 SCF Done:  E(RwB97XD) =  -805.032784131     A.U. after   10 cycles
 SCF Done:  E(RwB97XD) =  -805.032784346     A.U. after    9 cycles
 SCF Done:  E(RwB97XD) =  -805.032784491     A.U. after    9 cycles
 SCF Done:  E(RwB97XD) =  -805.032784558     A.U. after    8 cycles
 SCF Done:  E(RwB97XD) =  -805.032784580     A.U. after    8 cycles
 SCF Done:  E(RwB97XD) =  -805.032784582     A.U. after    7 cycles
 Optimization completed.
    -- Stationary point found.
 Normal termination of Gaussian 16 at Mon Jan 30 19:08:12 2023.

 ----------------------------------------------------------------------
 #N Geom=AllCheck Guess=TCheck SCRF=Check GenChk RwB97XD/Aug-CC-pVDZ Fr
 eq
 ----------------------------------------------------------------------

 Structure from the checkpoint file:  "/gscratch/scrubbed/gds001/Gau-29135.chk"
 ----
 blah
 ----
 Charge =  1 Multiplicity = 1

                         Standard orientation:
 ---------------------------------------------------------------------
 Center     Atomic      Atomic             Coordinates (Angstroms)
 Number     Number       Type             X           Y           Z
 ---------------------------------------------------------------------
      1          7           0        0.725158   -1.954136    0.555753
      2          6           0        1.261012   -1.381806   -0.694943
      3          6           0        0.170953   -1.658628   -1.765365
      4          6           0       -0.909184   -2.472328   -1.029140
      5          6           0       -0.144836   -3.064296    0.146611
      6          6           0        1.611436    0.076935   -0.500293
      7          6           0        0.598129    1.012116   -0.322859
      8          7           0        0.886847    2.300738   -0.109461
      9          6           0        2.145948    2.767171   -0.061464
     10          6           0        3.199983    1.893851   -0.240731
     11          6           0        2.925507    0.540602   -0.459470
     12          8           0       -1.477924    3.460610    0.127443
     13          8           0       -0.978063   -0.279771    2.041597
     14          1           0       -0.784577   -3.368446    0.983953
     15          1           0       -1.364991   -3.237872   -1.664775
     16          1           0       -1.705482   -1.813331   -0.660288
     17          1           0        0.609716   -2.237138   -2.585512
     18          1           0       -0.229274   -0.737859   -2.203315
     19          1           0        0.452450   -3.940639   -0.167981
     20          1           0        2.188392   -1.913666   -0.974033
     21          1           0       -0.464584    0.768326   -0.347147
     22          1           0        2.267739    3.832323    0.117493
     23          1           0        4.221324    2.265415   -0.207501
     24          1           0        3.748792   -0.160656   -0.599850
     25          6           0        1.763600   -2.331955    1.505298
     26          1           0        0.056487    2.935966    0.031988
     27          1           0       -0.378426   -0.894259    1.553985
     28          1           0       -1.125193   -0.655469    2.911829
     29          1           0       -2.045545    2.658859    0.219225
     30          1           0       -1.854952    4.150077    0.677490
     31          8           0       -2.525975    1.023885    0.229672
     32          1           0       -3.408723    0.691496   -0.008482
     33          1           0       -2.206681    0.504328    0.991152
     34          1           0        1.302261   -2.756708    2.404878
     35          1           0        2.337872   -1.446386    1.806582
     36          1           0        2.457896   -3.080527    1.082788
     37          8           0       -5.013795   -0.004469   -0.478626
     38          1           0       -5.332950    0.018440   -1.384794
     39          1           0       -5.794810    0.099501    0.071703
 ---------------------------------------------------------------------

 SCF Done:  E(RwB97XD) =  -805.032784582     A.U. after    1 cycles

 The electronic state is 1-A.
 Alpha  occ. eigenvalues --  -19.39645 -19.38482 -19.37583 -19.36573 -14.67071
 Alpha  occ. eigenvalues --  -14.57695 -10.50607 -10.49901 -10.47389 -10.46628
 Alpha  occ. eigenvalues --  -10.46467 -10.46128 -10.43098 -10.43056 -10.41224
 Alpha  occ. eigenvalues --  -10.40213  -1.25419  -1.23989  -1.22898  -1.21989
 Alpha  occ. eigenvalues --   -1.20282  -1.17017  -1.07838  -1.04276  -1.00375
 Alpha  occ. eigenvalues --   -0.95697  -0.90121  -0.89584  -0.88346  -0.82101
 Alpha  occ. eigenvalues --   -0.79730  -0.78928  -0.74578  -0.74295  -0.74235
 Alpha  occ. eigenvalues --   -0.73902  -0.73092  -0.72453  -0.70433  -0.69362
 Alpha  occ. eigenvalues --   -0.68432  -0.67519  -0.65296  -0.64437  -0.63583
 Alpha  occ. eigenvalues --   -0.62759  -0.61617  -0.61391  -0.59037  -0.58480
 Alpha  occ. eigenvalues --   -0.58422  -0.56716  -0.56167  -0.55889  -0.55340
 Alpha  occ. eigenvalues --   -0.53587  -0.53122  -0.52669  -0.52277  -0.51969
 Alpha  occ. eigenvalues --   -0.51293  -0.50224  -0.48842  -0.43905
 Alpha virt. eigenvalues --   -0.13334  -0.10542  -0.06120  -0.05343  -0.04714
 Alpha virt. eigenvalues --   -0.04483  -0.03645  -0.03090  -0.02911  -0.02344
 Alpha virt. eigenvalues --   -0.01745  -0.01622  -0.00945  -0.00785  -0.00211

 Mulliken charges:
               1
     1  N   -1.379897
     2  C    0.780979
     3  C    1.173550
     4  C    0.852539
     5  C    1.486367
     6  C    0.994149
     7  C    0.758780
     8  N    0.098712
     9  C    0.738416
    10  C    0.402495
    11  C    1.169240
    12  O   -0.424481
    13  O   -0.441907
    14  H   -0.499537
    15  H   -0.356081
    16  H   -0.286203
    17  H   -0.463570
    18  H   -0.456095
    19  H   -0.475165
    20  H   -0.764877
    21  H   -1.259337
    22  H   -0.678927
    23  H   -0.577411
    24  H   -0.907673
    25  C    1.011894
    26  H    0.145941
    27  H    0.452020
    28  H    0.170401
    29  H    0.245778
    30  H    0.157108
    31  O   -0.587483
    32  H    0.280612
    33  H    0.263701
    34  H   -0.221625
    35  H   -0.172617
    36  H   -0.209413
    37  O   -0.322323
    38  H    0.151260
    39  H    0.150681
 Sum of Mulliken charges =   1.00000

 Dipole moment (field-independent basis, Debye):
    X=              0.3580    Y=              1.8269    Z=              0.4353  Tot=              1.9119
 Quadrupole moment (field-independent basis, Debye-Ang):
   XX=            -36.3910   YY=            -63.6877   ZZ=            -87.1873
   XY=              4.3089   XZ=              0.0669   YZ=              2.2648

  Exact polarizability: 176.227   8.579 182.120   0.533   3.895 128.764
 Approx polarizability: 188.943   2.917 188.336  -1.663   6.308 147.433

                      1                      2                      3
                      A                      A                      A
 Frequencies --     15.3199                16.4767                44.1962
 Red. masses --      4.7409                 4.1118                 3.3473
 Frc consts  --      0.0007                 0.0007                 0.0039
 IR Inten    --      1.3454                 0.5542                 0.5510

                      4                      5                      6
                      A                      A                      A
 Frequencies --     47.6961                53.5169                67.0236
 Red. masses --      3.7260                 4.7472                 4.8506
 Frc consts  --      0.0050                 0.0080                 0.0128
 IR Inten    --      1.1880                 0.0799                 3.9930

                      7                      8                      9
                      A                      A                      A
 Frequencies --     75.8917                85.6109                94.8388
 Red. masses --      3.7593                 1.1263                 4.1473
 Frc consts  --      0.0128                 0.0049                 0.0220
 IR Inten    --      1.3103                16.5250                 3.3004

                     10                     11                     12
                      A                      A                      A
 Frequencies --    109.8632               121.5209               156.4684
 Red. masses --      4.0984                 4.4553                 4.7811
 Frc consts  --      0.0291                 0.0388                 0.0690
 IR Inten    --      6.1077                 8.5843                 4.2114

                     13                     14                     15
                      A                      A                      A
 Frequencies --    183.7092               202.0397               217.8443
 Red. masses --      4.9017                 2.2754                 1.2759
 Frc consts  --      0.0975                 0.0547                 0.0357
 IR Inten    --      4.8804                 7.3825                42.9604

                     16                     17                     18
                      A                      A                      A
 Frequencies --    226.8637               236.6698               242.2634
 Red. masses --      1.4823                 1.1762                 1.3277
 Frc consts  --      0.0449                 0.0388                 0.0459
 IR Inten    --     61.7134               160.0215               106.3024

                     19                     20                     21
                      A                      A                      A
 Frequencies --    257.8049               261.0754               263.0797
 Red. masses --      1.7409                 2.6093                 1.3974
 Frc consts  --      0.0682                 0.1048                 0.0570
 IR Inten    --     32.3300                16.4785                 3.4829

                     22                     23                     24
                      A                      A                      A
 Frequencies --    268.5519               273.9794               324.2541
 Red. masses --      2.3569                 3.1204                 4.9390
 Frc consts  --      0.1001                 0.1380                 0.3060
 IR Inten    --     39.0675                26.1442                 5.3755

                     25                     26                     27
                      A                      A                      A
 Frequencies --    336.4423               386.8076               401.6670
 Red. masses --      4.1826                 2.8498                 2.6922
 Frc consts  --      0.2789                 0.2512                 0.2559
 IR Inten    --      1.4215                 5.7535                10.1778

                     28                     29                     30
                      A                      A                      A
 Frequencies --    419.7331               532.9760               540.5220
 Red. masses --      3.1076                 1.1845                 1.1185
 Frc consts  --      0.3226                 0.1982                 0.1925
 IR Inten    --      0.4227                30.4884                59.7095

                     31                     32                     33
                      A                      A                      A
 Frequencies --    563.7679               584.4459               612.0596
 Red. masses --      2.8243                 2.4193                 1.0444
 Frc consts  --      0.5289                 0.4869                 0.2305
 IR Inten    --      2.8458                 4.9446                36.2769

                     34                     35                     36
                      A                      A                      A
 Frequencies --    633.5382               637.8134               656.8027
 Red. masses --      4.6095                 4.1039                 3.3176
 Frc consts  --      1.0901                 0.9836                 0.8432
 IR Inten    --     18.1659                 1.3280                 2.6524

                     37                     38                     39
                      A                      A                      A
 Frequencies --    714.0499               730.8258               768.4494
 Red. masses --      1.7597                 1.0927                 1.1953
 Frc consts  --      0.5286                 0.3439                 0.4159
 IR Inten    --     24.3769               153.4596               160.0362

                     40                     41                     42
                      A                      A                      A
 Frequencies --    787.5406               834.4413               854.8768
 Red. masses --      2.0106                 1.5935                 1.1934
 Frc consts  --      0.7347                 0.6537                 0.5139
 IR Inten    --     29.9025                36.5481                53.5610

                     43                     44                     45
                      A                      A                      A
 Frequencies --    874.4894               908.0794               913.1334
 Red. masses --      1.6668                 1.6699                 1.1548
 Frc consts  --      0.7510                 0.8113                 0.5673
 IR Inten    --     27.4962                30.0984                63.4875

                     46                     47                     48
                      A                      A                      A
 Frequencies --    935.0435               958.8694               978.4485
 Red. masses --      2.8003                 2.2198                 1.4104
 Frc consts  --      1.4425                 1.2025                 0.7956
 IR Inten    --      8.2219                 4.2739                 6.2210

                     49                     50                     51
                      A                      A                      A
 Frequencies --    986.4752              1007.6283              1036.0120
 Red. masses --      1.6962                 1.5292                 1.3969
 Frc consts  --      0.9725                 0.9148                 0.8834
 IR Inten    --      6.2760                14.0900                 2.8228

                     52                     53                     54
                      A                      A                      A
 Frequencies --   1046.8541              1061.3208              1075.3249
 Red. masses --      3.7062                 1.8177                 2.3248
 Frc consts  --      2.3931                 1.2063                 1.5839
 IR Inten    --      2.1839                19.2087                 1.5632

                     55                     56                     57
                      A                      A                      A
 Frequencies --   1094.6787              1105.3679              1140.8375
 Red. masses --      2.2149                 1.8421                 1.2655
 Frc consts  --      1.5638                 1.3261                 0.9704
 IR Inten    --      7.9860                 4.5582                 5.0840

                     58                     59                     60
                      A                      A                      A
 Frequencies --   1149.5150              1158.4242              1179.6807
 Red. masses --      1.4988                 1.1266                 1.5940
 Frc consts  --      1.1669                 0.8908                 1.3070
 IR Inten    --      9.4422                26.1441                 8.9005

                     61                     62                     63
                      A                      A                      A
 Frequencies --   1212.2007              1223.3116              1238.2023
 Red. masses --      1.5356                 1.3762                 1.9292
 Frc consts  --      1.3295                 1.2134                 1.7426
 IR Inten    --      9.9171                 3.2366                21.9175

                     64                     65                     66
                      A                      A                      A
 Frequencies --   1257.8459              1266.3753              1273.2368
 Red. masses --      1.7292                 2.1432                 1.3905
 Frc consts  --      1.6119                 2.0250                 1.3281
 IR Inten    --      4.1611                15.6172                 9.4698

                     67                     68                     69
                      A                      A                      A
 Frequencies --   1313.0885              1333.0977              1344.1411
 Red. masses --      1.3076                 2.3738                 1.3592
 Frc consts  --      1.3284                 2.4855                 1.4468
 IR Inten    --      0.6840                31.3991                 1.6226

                     70                     71                     72
                      A                      A                      A
 Frequencies --   1354.4733              1380.6918              1381.8766
 Red. masses --      1.4582                 1.6991                 1.8174
 Frc consts  --      1.5762                 1.9083                 2.0447
 IR Inten    --      1.4763                 8.7400                10.8161

                     73                     74                     75
                      A                      A                      A
 Frequencies --   1394.7000              1446.0618              1452.9347
 Red. masses --      1.5827                 1.5761                 1.3019
 Frc consts  --      1.8138                 1.9419                 1.6192
 IR Inten    --      3.6783                18.0837                10.4698

                     76                     77                     78
                      A                      A                      A
 Frequencies --   1483.6228              1487.5818              1492.5920
 Red. masses --      1.0474                 1.0766                 1.0708
 Frc consts  --      1.3584                 1.4037                 1.4055
 IR Inten    --     12.3915                 8.6036                11.3055

                     79                     80                     81
                      A                      A                      A
 Frequencies --   1504.4442              1516.4318              1525.9921
 Red. masses --      1.1155                 1.3452                 1.5562
 Frc consts  --      1.4875                 1.8226                 2.1351
 IR Inten    --      7.8670                27.1960                30.9831

                     82                     83                     84
                      A                      A                      A
 Frequencies --   1624.1183              1635.8784              1638.2802
 Red. masses --      1.0799                 1.0858                 2.4667
 Frc consts  --      1.6784                 1.7120                 3.9007
 IR Inten    --     40.2949                95.2057                45.3175

                     85                     86                     87
                      A                      A                      A
 Frequencies --   1665.0079              1687.8378              1710.6013
 Red. masses --      1.0727                 1.0696                 4.8389
 Frc consts  --      1.7522                 1.7952                 8.3425
 IR Inten    --     26.0920                 7.9176                 9.0259

                     88                     89                     90
                      A                      A                      A
 Frequencies --   1728.1906              2935.1160              2992.7082
 Red. masses --      2.1226                 1.0989                 1.0734
 Frc consts  --      3.7351                 5.5777                 5.6644
 IR Inten    --     71.2972              1660.5939                29.1524

                     91                     92                     93
                      A                      A                      A
 Frequencies --   2995.8414              2998.4253              3085.8830
 Red. masses --      1.0808                 1.0497                 1.0658
 Frc consts  --      5.7151                 5.5602                 5.9796
 IR Inten    --     44.6850                87.5436                10.4998

                     94                     95                     96
                      A                      A                      A
 Frequencies --   3100.9625              3102.2682              3121.9184
 Red. masses --      1.0634                 1.0874                 1.0939
 Frc consts  --      6.0249                 6.1657                 6.2819
 IR Inten    --     21.3861                16.4423                16.5692

                     97                     98                     99
                      A                      A                      A
 Frequencies --   3143.9766              3146.2283              3162.3108
 Red. masses --      1.1037                 1.1044                 1.1043
 Frc consts  --      6.4275                 6.4413                 6.5064
 IR Inten    --     14.5371                 5.2095                24.0909

                    100                    101                    102
                      A                      A                      A
 Frequencies --   3202.1459              3210.9801              3245.3808
 Red. masses --      1.0984                 1.0926                 1.0930
 Frc consts  --      6.6360                 6.6372                 6.7825
 IR Inten    --     94.8050                 0.6407                 0.9828

                    103                    104                    105
                      A                      A                      A
 Frequencies --   3261.8714              3337.9494              3412.9129
 Red. masses --      1.1004                 1.0673                 1.0639
 Frc consts  --      6.8981                 7.0062                 7.3011
 IR Inten    --      2.2254              1048.7263               885.8123

                    106                    107                    108
                      A                      A                      A
 Frequencies --   3616.3407              3688.7552              3874.9953
 Red. masses --      1.0501                 1.0824                 1.0454
 Frc consts  --      8.0916                 8.6777                 9.2485
 IR Inten    --    169.6029              1023.9163                21.7071

                    109                    110                    111
                      A                      A                      A
 Frequencies --   3949.1832              3951.9371              3979.5169
 Red. masses --      1.0674                 1.0678                 1.0826
 Frc consts  --      9.8087                 9.8257                10.1013
 IR Inten    --     90.8283               121.8861               105.3413

 - Thermochemistry -
 -------------------
 Temperature   298.150 Kelvin.  Pressure   1.00000 Atm.
 Atom     1 has atomic number  7 and mass  14.00307

 Molecular mass:   235.16578 amu.
 Principal axes and moments of inertia in atomic units:
                           1         2         3
     Eigenvalues --  4030.009294696.410437234.88839
           X            0.99853  -0.05377   0.00645
           Y            0.05376   0.99855   0.00136
           Z           -0.00652  -0.00101   0.99998
 This molecule is an asymmetric top.
 Rotational symmetry number  1.
 Warning -- assumption of classical behavior for rotation
           may cause significant error
 Rotational temperatures (Kelvin)      0.02149     0.01844     0.01197
 Rotational constants (GHZ):           0.44783     0.38428     0.24945
 Zero-point vibrational energy     900452.6 (Joules/Mol)
                                  215.21335 (Kcal/Mol)
 Warning -- explicit consideration of  33 degrees of freedom as
           vibrations may cause significant error
 Vibrational temperatures:     22.04    23.71    63.59    68.62    77.00
          (Kelvin)             96.43   109.19   123.17   136.45   158.07
                              174.84   225.12   264.32   290.69   313.43
                              326.41   340.52   348.56   370.92   375.63
                              378.51   386.39   394.20   466.53   484.07
                              556.53   577.91   603.90   766.83   777.69
                              811.14   840.89   880.62   911.52   917.67
                              944.99  1027.36  1051.50  1105.63  1133.10
                             1200.57  1229.98  1258.20  1306.52  1313.80
                             1345.32  1379.60  1407.77  1419.32  1449.75
                             1490.59  1506.19  1527.00  1547.15  1575.00
                             1590.38  1641.41  1653.90  1666.71  1697.30
                             1744.09  1760.07  1781.50  1809.76  1822.03
                             1831.90  1889.24  1918.03  1933.92  1948.78
                             1986.51  1988.21  2006.66  2080.56  2090.45
                             2134.60  2140.30  2147.51  2164.56  2181.81
                             2195.56  2336.74  2353.66  2357.12  2395.57
                             2428.42  2461.17  2486.48  4222.98  4305.84
                             4310.35  4314.07  4439.90  4461.59  4463.47
                             4491.74  4523.48  4526.72  4549.86  4607.17
                             4619.88  4669.38  4693.11  4802.56  4910.42
                             5203.11  5307.30  5575.25  5681.99  5685.96
                             5725.64

 Zero-point correction=                           0.342964 (Hartree/Particle)
 Thermal correction to Energy=                    0.365124
 Thermal correction to Enthalpy=                  0.366068
 Thermal correction to Gibbs Free Energy=         0.289361
 Sum of electronic and zero-point Energies=           -804.689820
 Sum of electronic and thermal Energies=              -804.667661
 Sum of electronic and thermal Enthalpies=            -804.666716
 Sum of electronic and thermal Free Energies=         -804.743424

                     E (Thermal)             CV                S
                      KCal/Mol        Cal/Mol-Kelvin    Cal/Mol-Kelvin
 Total                  229.119             78.295            161.444
 Electronic               0.000              0.000              0.000
 Translational            0.889              2.981             42.267
 Rotational               0.889              2.981             33.282
 Vibrational            227.341             72.333             85.895
 Vibration     1          0.593              1.986              7.164
 Vibration     2          0.593              1.986              7.019
 Vibration     3          0.595              1.980              5.062
 Vibration     4          0.595              1.978              4.911
 Vibration     5          0.596              1.976              4.683
 Vibration     6          0.598              1.970              4.239
 Vibration     7          0.599              1.965              3.994
 Vibration     8          0.601              1.959              3.758
 Vibration     9          0.603              1.953              3.558
 Vibration    10          0.606              1.941              3.271
 Vibration    11          0.609              1.931              3.076
 Vibration    12          0.620              1.895              2.592
 Vibration    13          0.631              1.862              2.290
 Vibration    14          0.639              1.837              2.114
 Vibration    15          0.646              1.814              1.977
 Vibration    16          0.651              1.800              1.904
 Vibration    17          0.656              1.785              1.828
 Vibration    18          0.658              1.776              1.786
 Vibration    19          0.667              1.750              1.677
 Vibration    20          0.669              1.744              1.655
 Vibration    21          0.670              1.741              1.641
 Vibration    22          0.673              1.731              1.606
 Vibration    23          0.676              1.721              1.571
 Vibration    24          0.709              1.627              1.289
 Vibration    25          0.717              1.603              1.229
 Vibration    26          0.755              1.498              1.012
 Vibration    27          0.767              1.467              0.957
 Vibration    28          0.782              1.427              0.893
 Vibration    29          0.888              1.177              0.581
 Vibration    30          0.896              1.160              0.564
 Vibration    31          0.920              1.110              0.516
 Vibration    32          0.941              1.065              0.477
 Vibration    33          0.971              1.006              0.429

                           ! Non-Optimized Parameters !
 Normal termination of Gaussian 16 at Mon Jan 30 20:17:13 2023.
