 Gaussian 16, Revision A.03,
 Gaussian 16:  ES64L-G16RevA.03 25-Dec-2016

 -----------------------------
 # wB97XD/aug-cc-pVDZ opt freq
 -----------------------------

 ----
 blah
 ----
 Symbolic Z-matrix:
 Charge =  1 Multiplicity = 1

 SCF Done:  E(RwB97XD) =  -805.020663224     A.U. after   14 cycles
 SCF Done:  E(RwB97XD) =  -805.021308690     A.U. after   15 cycles
 SCF Done:  E(RwB97XD) =  -805.021054583     A.U. after   15 cycles
 SCF Done:  E(RwB97XD) =  -805.021627871     A.U. after   13 cycles
 SCF Done:  E(RwB97XD) =  -805.021897299     A.U. after   14 cycles
 SCF Done:  E(RwB97XD) =  -805.021883092     A.U. after   14 cycles
 SCF Done:  E(RwB97XD) =  -805.021991955     A.U. after   14 cycles
 SCF Done:  E(RwB97XD) =  -805.022242587     A.U. after   14 cycles
 SCF Done:  E(RwB97XD) =  -805.022280676     A.U. after   12 cycles
 SCF Done:  E(RwB97XD) =  -805.022471420     A.U. after   11 cycles
 SCF Done:  E(RwB97XD) =  -805.023026630     A.U. after    9 cycles
 SCF Done:  E(RwB97XD) =  -805.023026840     A.U. after    9 cycles
 SCF Done:  E(RwB97XD) =  -805.023026980     A.U. after    8 cycles
 SCF Done:  E(RwB97XD) =  -805.023027018     A.U. after    9 cycles
 SCF Done:  E(RwB97XD) =  -805.023027026     A.U. after    8 cycles
 SCF Done:  E(RwB97XD) =  -805.023027035     A.U. after    8 cycles
 SCF Done:  E(RwB97XD) =  -805.023027045     A.U. after    8 cycles
 SCF Done:  E(RwB97XD) =  -805.023027056     A.U. after    8 cycles
 SCF Done:  E(RwB97XD) =  -805.023027067     A.U. after    8 cycles
 Optimization completed.
    -- Stationary point found.
 Normal termination of Gaussian 16 at Fri Jan 27 14:40:40 2023.

 ----------------------------------------------------------------------
 #N Geom=AllCheck Guess=TCheck SCRF=Check GenChk RwB97XD/Aug-CC-pVDZ Fr
 eq
 ----------------------------------------------------------------------

 Structure from the checkpoint file:  "/gscratch/scrubbed/gds001/Gau-19901.chk"
 ----
 blah
 ----
 Charge =  1 Multiplicity = 1

                         Standard orientation:
 ---------------------------------------------------------------------
 Center     Atomic      Atomic             Coordinates (Angstroms)
 Number     Number       Type             X           Y           Z
 ---------------------------------------------------------------------
      1          6           0        1.950349    2.251522    0.480140
      2          6           0        2.123323    0.890157    0.210867
      3          6           0        1.005286    0.172617   -0.190455
      4          7           0       -0.186021    0.776092   -0.319684
      5          6           0       -0.369051    2.081053   -0.072356
      6          6           0        0.702461    2.855019    0.336309
      7          6           0        3.478233    0.220903    0.311188
      8          7           0        3.351312   -1.225967    0.430772
      9          6           0        4.499978   -1.822431   -0.245480
     10          6           0        4.644029   -0.957011   -1.489591
     11          6           0        4.358178    0.455812   -0.953136
     12          8           0       -2.266841   -0.696203   -1.000912
     13          8           0       -4.110651   -1.031628    0.838945
     14          1           0        4.303530   -2.879166   -0.463748
     15          1           0        5.633344   -1.035533   -1.952072
     16          1           0        3.893726   -1.249872   -2.234795
     17          1           0        5.288646    0.955056   -0.659564
     18          1           0        3.862520    1.095233   -1.692411
     19          1           0        5.414882   -1.765734    0.378152
     20          1           0        3.990063    0.652537    1.193552
     21          1           0        1.055837   -0.892580   -0.403585
     22          1           0       -1.377903    2.463780   -0.205717
     23          1           0        0.557474    3.912706    0.543084
     24          1           0        2.803360    2.846698    0.808504
     25          6           0        3.142038   -1.690931    1.788875
     26          1           0       -1.017500    0.196503   -0.621480
     27          1           0       -2.995078   -0.856936   -0.347366
     28          1           0       -2.613788   -0.890302   -1.873500
     29          1           0       -4.984968   -0.585985    0.785364
     30          1           0       -4.266494   -1.882555    1.253597
     31          8           0       -6.467764    0.255464    0.660006
     32          1           0       -7.236511   -0.077716    0.162522
     33          1           0       -6.824143    0.756387    1.396625
     34          1           0        2.228717   -1.246154    2.207351
     35          1           0        3.987788   -1.434263    2.456390
     36          1           0        3.017659   -2.780314    1.790498
     37          8           0       -8.624625   -0.694970   -0.795518
     38          1           0       -9.086932   -0.176805   -1.459384
     39          1           0       -9.241156   -1.377423   -0.517951
 ---------------------------------------------------------------------

 SCF Done:  E(RwB97XD) =  -805.023027067     A.U. after    1 cycles

 The electronic state is 1-A.
 Alpha  occ. eigenvalues --  -19.38938 -19.38190 -19.36642 -19.36567 -14.66294
 Alpha  occ. eigenvalues --  -14.54463 -10.49869 -10.49086 -10.46552 -10.45813
 Alpha  occ. eigenvalues --  -10.45722 -10.44478 -10.40922 -10.40916 -10.39944
 Alpha  occ. eigenvalues --  -10.38698  -1.24643  -1.23323  -1.22731  -1.21267
 Alpha  occ. eigenvalues --   -1.20016  -1.14896  -1.06944  -1.03236  -0.98622
 Alpha  occ. eigenvalues --   -0.94252  -0.89346  -0.87972  -0.86731  -0.81204
 Alpha  occ. eigenvalues --   -0.77948  -0.77007  -0.74055  -0.73690  -0.73157
 Alpha  occ. eigenvalues --   -0.72457  -0.72270  -0.72034  -0.69511  -0.68259
 Alpha  occ. eigenvalues --   -0.67772  -0.66395  -0.63306  -0.62960  -0.62410
 Alpha  occ. eigenvalues --   -0.61502  -0.61108  -0.59916  -0.59117  -0.57473
 Alpha  occ. eigenvalues --   -0.56394  -0.55590  -0.55176  -0.54565  -0.53730
 Alpha  occ. eigenvalues --   -0.52111  -0.51813  -0.51795  -0.51688  -0.50542
 Alpha  occ. eigenvalues --   -0.50250  -0.49915  -0.47753  -0.40421
 Alpha virt. eigenvalues --   -0.12891  -0.09369  -0.05856  -0.04805  -0.04147
 Alpha virt. eigenvalues --   -0.03697  -0.03409  -0.02517  -0.02285  -0.02258
 Alpha virt. eigenvalues --   -0.01908  -0.01268  -0.00772  -0.00743  -0.00226

 Mulliken charges:
               1
     1  C    1.111298
     2  C    0.770681
     3  C    0.685884
     4  N    0.013054
     5  C    0.725535
     6  C    0.313556
     7  C    0.952250
     8  N   -0.411102
     9  C    1.162169
    10  C    0.607831
    11  C    0.939678
    12  O   -0.479198
    13  O   -0.403040
    14  H   -0.512344
    15  H   -0.267569
    16  H   -0.374309
    17  H   -0.363490
    18  H   -0.445418
    19  H   -0.453975
    20  H   -0.549564
    21  H   -0.971030
    22  H   -0.657637
    23  H   -0.563429
    24  H   -0.872519
    25  C    0.799082
    26  H    0.107213
    27  H    0.297926
    28  H    0.132858
    29  H    0.271405
    30  H    0.127880
    31  O   -0.359234
    32  H    0.232170
    33  H    0.126165
    34  H   -0.288575
    35  H   -0.169322
    36  H   -0.214524
    37  O   -0.313407
    38  H    0.144407
    39  H    0.148644
 Sum of Mulliken charges =   1.00000

 Dipole moment (field-independent basis, Debye):
    X=             -6.9265    Y=              2.0607    Z=             -0.4761  Tot=              7.2422
 Quadrupole moment (field-independent basis, Debye-Ang):
   XX=             45.1810   YY=            -73.7059   ZZ=            -88.0869
   XY=             10.3488   XZ=              6.2781   YZ=              1.5149

  Exact polarizability: 192.773 -13.724 167.655   1.998   3.656 133.808
 Approx polarizability: 189.107  -4.590 184.965   7.049   7.692 149.173

                      1                      2                      3
                      A                      A                      A
 Frequencies --      5.1024                 8.9964                13.1188
 Red. masses --      4.7900                 4.6670                 4.3146
 Frc consts  --      0.0001                 0.0002                 0.0004
 IR Inten    --      0.1211                 0.7082                 0.7100

                      4                      5                      6
                      A                      A                      A
 Frequencies --     16.3502                20.8807                26.2330
 Red. masses --      3.4256                 4.4738                 3.7068
 Frc consts  --      0.0005                 0.0011                 0.0015
 IR Inten    --      0.4723                 0.9610                 0.3093

                      7                      8                      9
                      A                      A                      A
 Frequencies --     37.0616                47.2442                59.0411
 Red. masses --      4.3935                 5.3131                 5.6968
 Frc consts  --      0.0036                 0.0070                 0.0117
 IR Inten    --      1.3883                 0.7243                 0.7002

                     10                     11                     12
                      A                      A                      A
 Frequencies --     94.8588                97.5955               120.6182
 Red. masses --      1.3953                 2.0110                 3.5103
 Frc consts  --      0.0074                 0.0113                 0.0301
 IR Inten    --     13.8090                13.7841                 0.8032

                     13                     14                     15
                      A                      A                      A
 Frequencies --    164.7300               168.5940               179.2189
 Red. masses --      2.9372                 1.1474                 2.1798
 Frc consts  --      0.0470                 0.0192                 0.0413
 IR Inten    --     22.6785               207.4169                17.7067

                     16                     17                     18
                      A                      A                      A
 Frequencies --    195.3468               210.9137               212.2593
 Red. masses --      1.8534                 1.3097                 1.6077
 Frc consts  --      0.0417                 0.0343                 0.0427
 IR Inten    --     65.2734                80.7033                11.5640

                     19                     20                     21
                      A                      A                      A
 Frequencies --    225.9274               242.7012               246.1558
 Red. masses --      2.9574                 1.1291                 1.1829
 Frc consts  --      0.0889                 0.0392                 0.0422
 IR Inten    --     19.8026                63.2610                 2.1945

                     22                     23                     24
                      A                      A                      A
 Frequencies --    263.0952               276.0747               289.6449
 Red. masses --      1.1024                 3.0073                 5.0131
 Frc consts  --      0.0450                 0.1350                 0.2478
 IR Inten    --    113.4078                 2.6529                25.4730

                     25                     26                     27
                      A                      A                      A
 Frequencies --    297.5629               356.1417               368.2517
 Red. masses --      3.5652                 2.8267                 4.9743
 Frc consts  --      0.1860                 0.2112                 0.3974
 IR Inten    --      2.1706                 7.4507                18.7301

                     28                     29                     30
                      A                      A                      A
 Frequencies --    413.8250               417.2455               430.3444
 Red. masses --      1.0538                 2.9663                 3.1705
 Frc consts  --      0.1063                 0.3043                 0.3459
 IR Inten    --     28.4912                 1.4490                 0.8047

                     31                     32                     33
                      A                      A                      A
 Frequencies --    477.5000               529.7429               578.4754
 Red. masses --      1.0517                 3.0742                 1.4630
 Frc consts  --      0.1413                 0.5083                 0.2885
 IR Inten    --     21.6178                 1.7633                14.3127

                     34                     35                     36
                      A                      A                      A
 Frequencies --    587.9145               619.3847               642.2004
 Red. masses --      1.7798                 4.0743                 5.0027
 Frc consts  --      0.3624                 0.9209                 1.2156
 IR Inten    --      9.0671                12.7054                15.8987

                     37                     38                     39
                      A                      A                      A
 Frequencies --    660.2496               714.1131               726.8098
 Red. masses --      3.5074                 2.0214                 1.0524
 Frc consts  --      0.9008                 0.6073                 0.3276
 IR Inten    --      3.6107                28.4147               124.4792

                     40                     41                     42
                      A                      A                      A
 Frequencies --    780.2089               836.3517               848.7237
 Red. masses --      2.5676                 1.4782                 1.0598
 Frc consts  --      0.9209                 0.6092                 0.4498
 IR Inten    --      8.6763                31.3708               124.8630

                     43                     44                     45
                      A                      A                      A
 Frequencies --    872.1343               902.6913               938.2149
 Red. masses --      2.0651                 1.8163                 3.1488
 Frc consts  --      0.9255                 0.8720                 1.6331
 IR Inten    --      4.6196                 7.6011                 7.0690

                     46                     47                     48
                      A                      A                      A
 Frequencies --    946.0666               963.5892               974.6902
 Red. masses --      1.0476                 2.0145                 1.9722
 Frc consts  --      0.5525                 1.1020                 1.1039
 IR Inten    --     57.9788                 3.9354                 3.3469

                     49                     50                     51
                      A                      A                      A
 Frequencies --    980.5249               993.8821              1032.9693
 Red. masses --      1.3066                 1.6018                 1.3815
 Frc consts  --      0.7401                 0.9322                 0.8685
 IR Inten    --      4.2571                 1.6669                 0.2994

                     52                     53                     54
                      A                      A                      A
 Frequencies --   1042.5010              1063.1483              1078.4585
 Red. masses --      3.7140                 2.0864                 1.7562
 Frc consts  --      2.3782                 1.3894                 1.2035
 IR Inten    --      3.9775                 6.3559                17.3660

                     55                     56                     57
                      A                      A                      A
 Frequencies --   1085.8739              1106.1745              1136.5714
 Red. masses --      2.1971                 1.8376                 1.2644
 Frc consts  --      1.5263                 1.3248                 0.9623
 IR Inten    --      3.1012                 8.4914                 4.9129

                     58                     59                     60
                      A                      A                      A
 Frequencies --   1141.8421              1180.8812              1207.4197
 Red. masses --      1.4987                 1.4221                 1.1729
 Frc consts  --      1.1512                 1.1684                 1.0075
 IR Inten    --      4.3561                 6.6811                 8.8197

                     61                     62                     63
                      A                      A                      A
 Frequencies --   1212.8889              1232.7863              1250.0047
 Red. masses --      1.6346                 1.9974                 1.0880
 Frc consts  --      1.4168                 1.7885                 1.0017
 IR Inten    --      3.6399                17.5442                29.2792

                     64                     65                     66
                      A                      A                      A
 Frequencies --   1256.8209              1270.8087              1284.1647
 Red. masses --      1.7901                 1.5677                 1.9092
 Frc consts  --      1.6660                 1.4917                 1.8550
 IR Inten    --     13.0005                 8.9068                29.9170

                     67                     68                     69
                      A                      A                      A
 Frequencies --   1302.3898              1307.8225              1339.7986
 Red. masses --      1.4488                 1.3698                 1.6240
 Frc consts  --      1.4479                 1.3804                 1.7176
 IR Inten    --      9.8087                 1.4041                 8.6879

                     70                     71                     72
                      A                      A                      A
 Frequencies --   1347.1965              1363.8238              1375.0283
 Red. masses --      1.4475                 2.7590                 1.6567
 Frc consts  --      1.5479                 3.0236                 1.8455
 IR Inten    --      0.6179                17.5965                15.9724

                     73                     74                     75
                      A                      A                      A
 Frequencies --   1391.9252              1432.0557              1453.8371
 Red. masses --      1.7201                 1.7950                 1.2169
 Frc consts  --      1.9635                 2.1689                 1.5155
 IR Inten    --      8.4366                43.4998                 5.5388

                     76                     77                     78
                      A                      A                      A
 Frequencies --   1478.1119              1483.7032              1491.6210
 Red. masses --      1.0475                 1.0854                 1.0695
 Frc consts  --      1.3483                 1.4078                 1.4020
 IR Inten    --     11.3699                 8.0028                 8.2976

                     79                     80                     81
                      A                      A                      A
 Frequencies --   1499.5982              1511.1348              1519.6519
 Red. masses --      1.0919                 2.2020                 1.1417
 Frc consts  --      1.4467                 2.9627                 1.5534
 IR Inten    --      7.8771                27.6432                 0.9835

                     82                     83                     84
                      A                      A                      A
 Frequencies --   1618.6909              1626.3856              1636.8327
 Red. masses --      1.6283                 1.1841                 1.1619
 Frc consts  --      2.5138                 1.8454                 1.8341
 IR Inten    --    117.3275                98.6829                 8.1652

                     85                     86                     87
                      A                      A                      A
 Frequencies --   1658.1428              1685.6897              1696.6586
 Red. masses --      1.1067                 1.1150                 4.9617
 Frc consts  --      1.7927                 1.8668                 8.4153
 IR Inten    --     12.2120                 5.4577                11.8863

                     88                     89                     90
                      A                      A                      A
 Frequencies --   1717.9653              2858.7966              2961.1875
 Red. masses --      2.5673                 1.1056                 1.0789
 Frc consts  --      4.4644                 5.3235                 5.5738
 IR Inten    --      6.1543              3047.0850                32.2809

                     91                     92                     93
                      A                      A                      A
 Frequencies --   2965.3808              2971.7513              3084.5761
 Red. masses --      1.0751                 1.0552                 1.0648
 Frc consts  --      5.5698                 5.4903                 5.9690
 IR Inten    --     40.9860                84.0005                15.8966

                     94                     95                     96
                      A                      A                      A
 Frequencies --   3086.0387              3092.2713              3117.9194
 Red. masses --      1.0825                 1.0631                 1.0916
 Frc consts  --      6.0738                 5.9894                 6.2522
 IR Inten    --     31.4593                19.2215                25.3282

                     97                     98                     99
                      A                      A                      A
 Frequencies --   3140.3995              3140.5856              3158.0336
 Red. masses --      1.1037                 1.1029                 1.1045
 Frc consts  --      6.4134                 6.4092                 6.4899
 IR Inten    --      9.2256                18.1044                24.8789

                    100                    101                    102
                      A                      A                      A
 Frequencies --   3208.6845              3244.5326              3250.9966
 Red. masses --      1.0922                 1.0926                 1.0950
 Frc consts  --      6.6254                 6.7767                 6.8187
 IR Inten    --      0.5645                 1.2934                 9.4638

                    103                    104                    105
                      A                      A                      A
 Frequencies --   3259.2412              3315.0341              3493.0433
 Red. masses --      1.1006                 1.0653                 1.0624
 Frc consts  --      6.8880                 6.8974                 7.6377
 IR Inten    --      1.1517              1604.1101               907.7369

                    106                    107                    108
                      A                      A                      A
 Frequencies --   3650.2421              3879.4714              3951.6771
 Red. masses --      1.0594                 1.0451                 1.0676
 Frc consts  --      8.3169                 9.2677                 9.8227
 IR Inten    --    548.1742                24.6671                90.5602

                    109                    110                    111
                      A                      A                      A
 Frequencies --   3953.9841              3955.4904              3986.6420
 Red. masses --      1.0695                 1.0671                 1.0830
 Frc consts  --      9.8516                 9.8367                10.1412
 IR Inten    --    100.3736                86.2417               111.4194

 - Thermochemistry -
 -------------------
 Temperature   298.150 Kelvin.  Pressure   1.00000 Atm.
 Atom     1 has atomic number  6 and mass  12.00000

 Molecular mass:   235.16578 amu.
 Principal axes and moments of inertia in atomic units:
                           1         2         3
     Eigenvalues --  2177.12063********************
           X            1.00000  -0.00174   0.00060
           Y            0.00175   0.99997  -0.00806
           Z           -0.00059   0.00806   0.99997
 This molecule is an asymmetric top.
 Rotational symmetry number  1.
 Warning -- assumption of classical behavior for rotation
           may cause significant error
 Rotational temperatures (Kelvin)      0.03978     0.00580     0.00546
 Rotational constants (GHZ):           0.82896     0.12094     0.11368
 Zero-point vibrational energy     893167.6 (Joules/Mol)
                                  213.47218 (Kcal/Mol)
 Warning -- explicit consideration of  35 degrees of freedom as
           vibrations may cause significant error
 Vibrational temperatures:      7.34    12.94    18.87    23.52    30.04
          (Kelvin)             37.74    53.32    67.97    84.95   136.48
                              140.42   173.54   237.01   242.57   257.86
                              281.06   303.46   305.39   325.06   349.19
                              354.16   378.54   397.21   416.73   428.13
                              512.41   529.83   595.40   600.32   619.17
                              687.02   762.18   832.30   845.88   891.16
                              923.98   949.95  1027.45  1045.72  1122.55
                             1203.32  1221.12  1254.81  1298.77  1349.88
                             1361.18  1386.39  1402.36  1410.76  1429.97
                             1486.21  1499.93  1529.63  1551.66  1562.33
                             1591.54  1635.27  1642.86  1699.02  1737.21
                             1745.08  1773.70  1798.48  1808.28  1828.41
                             1847.63  1873.85  1881.66  1927.67  1938.32
                             1962.24  1978.36  2002.67  2060.41  2091.75
                             2126.67  2134.72  2146.11  2157.59  2174.19
                             2186.44  2328.94  2340.01  2355.04  2385.70
                             2425.33  2441.11  2471.77  4113.17  4260.49
                             4266.52  4275.69  4438.02  4440.12  4449.09
                             4485.99  4518.33  4518.60  4543.71  4616.58
                             4668.16  4677.46  4689.32  4769.59  5025.71
                             5251.88  5581.69  5685.58  5688.90  5691.07
                             5735.89

 Zero-point correction=                           0.340190 (Hartree/Particle)
 Thermal correction to Energy=                    0.363961
 Thermal correction to Enthalpy=                  0.364905
 Thermal correction to Gibbs Free Energy=         0.277879
 Sum of electronic and zero-point Energies=           -804.682838
 Sum of electronic and thermal Energies=              -804.659066
 Sum of electronic and thermal Enthalpies=            -804.658122
 Sum of electronic and thermal Free Energies=         -804.745148

                     E (Thermal)             CV                S
                      KCal/Mol        Cal/Mol-Kelvin    Cal/Mol-Kelvin
 Total                  228.389             80.394            183.161
 Electronic               0.000              0.000              0.000
 Translational            0.889              2.981             42.267
 Rotational               0.889              2.981             34.599
 Vibrational            226.611             74.432            106.295
 Vibration     1          0.593              1.987              9.348
 Vibration     2          0.593              1.987              8.221
 Vibration     3          0.593              1.987              7.472
 Vibration     4          0.593              1.986              7.034
 Vibration     5          0.593              1.986              6.549
 Vibration     6          0.593              1.985              6.096
 Vibration     7          0.594              1.982              5.410
 Vibration     8          0.595              1.979              4.930
 Vibration     9          0.596              1.974              4.489
 Vibration    10          0.603              1.953              3.557
 Vibration    11          0.603              1.951              3.502
 Vibration    12          0.609              1.932              3.090
 Vibration    13          0.623              1.886              2.495
 Vibration    14          0.625              1.881              2.451
 Vibration    15          0.629              1.868              2.337
 Vibration    16          0.636              1.846              2.176
 Vibration    17          0.643              1.824              2.036
 Vibration    18          0.643              1.822              2.024
 Vibration    19          0.650              1.802              1.911
 Vibration    20          0.659              1.775              1.783
 Vibration    21          0.661              1.769              1.758
 Vibration    22          0.670              1.740              1.641
 Vibration    23          0.678              1.718              1.558
 Vibration    24          0.686              1.693              1.476
 Vibration    25          0.691              1.678              1.431
 Vibration    26          0.732              1.563              1.139
 Vibration    27          0.741              1.538              1.087
 Vibration    28          0.777              1.440              0.913
 Vibration    29          0.780              1.433              0.901
 Vibration    30          0.792              1.404              0.858
 Vibration    31          0.834              1.300              0.717
 Vibration    32          0.885              1.184              0.588
 Vibration    33          0.935              1.078              0.488
 Vibration    34          0.945              1.058              0.471
 Vibration    35          0.979              0.991              0.417

                           ! Non-Optimized Parameters !
 Normal termination of Gaussian 16 at Fri Jan 27 15:28:20 2023.
