 Gaussian 16, Revision A.03,
 Gaussian 16:  ES64L-G16RevA.03 25-Dec-2016

 -----------------------------
 # wB97XD/aug-cc-pVDZ opt freq
 -----------------------------

 ----
 blah
 ----
 Symbolic Z-matrix:
 Charge =  1 Multiplicity = 1

 SCF Done:  E(RwB97XD) =  -805.020808610     A.U. after   14 cycles
 SCF Done:  E(RwB97XD) =  -805.021268148     A.U. after   15 cycles
 SCF Done:  E(RwB97XD) =  -805.021197564     A.U. after   15 cycles
 SCF Done:  E(RwB97XD) =  -805.021803780     A.U. after   13 cycles
 SCF Done:  E(RwB97XD) =  -805.021937874     A.U. after   14 cycles
 SCF Done:  E(RwB97XD) =  -805.021790342     A.U. after   14 cycles
 SCF Done:  E(RwB97XD) =  -805.022028035     A.U. after   15 cycles
 SCF Done:  E(RwB97XD) =  -805.022087669     A.U. after   12 cycles
 SCF Done:  E(RwB97XD) =  -805.022132255     A.U. after   12 cycles
 SCF Done:  E(RwB97XD) =  -805.022156014     A.U. after   11 cycles
 SCF Done:  E(RwB97XD) =  -805.022288371     A.U. after   10 cycles
 SCF Done:  E(RwB97XD) =  -805.022288608     A.U. after   10 cycles
 SCF Done:  E(RwB97XD) =  -805.022288900     A.U. after   10 cycles
 SCF Done:  E(RwB97XD) =  -805.022289157     A.U. after   10 cycles
 SCF Done:  E(RwB97XD) =  -805.022289494     A.U. after   10 cycles
 SCF Done:  E(RwB97XD) =  -805.022289547     A.U. after    8 cycles
 SCF Done:  E(RwB97XD) =  -805.022289594     A.U. after    8 cycles
 SCF Done:  E(RwB97XD) =  -805.022289527     A.U. after    9 cycles
 SCF Done:  E(RwB97XD) =  -805.022289448     A.U. after    9 cycles
 Optimization completed.
    -- Stationary point found.
 Normal termination of Gaussian 16 at Fri Jan 27 21:02:46 2023.

 ----------------------------------------------------------------------
 #N Geom=AllCheck Guess=TCheck SCRF=Check GenChk RwB97XD/Aug-CC-pVDZ Fr
 eq
 ----------------------------------------------------------------------

 Structure from the checkpoint file:  "/gscratch/scrubbed/gds001/Gau-27004.chk"
 ----
 blah
 ----
 Charge =  1 Multiplicity = 1

                         Standard orientation:
 ---------------------------------------------------------------------
 Center     Atomic      Atomic             Coordinates (Angstroms)
 Number     Number       Type             X           Y           Z
 ---------------------------------------------------------------------
      1          6           0       -3.530320    1.421197   -0.384925
      2          6           0       -2.710148    0.120625   -0.577775
      3          7           0       -3.652836   -0.945043   -0.275677
      4          6           0       -4.921336   -0.509834   -0.853998
      5          6           0       -5.006405    0.967817   -0.471541
      6          6           0       -1.493628    0.055738    0.314102
      7          6           0       -0.227236    0.338767   -0.171231
      8          7           0        0.843986    0.319581    0.638172
      9          6           0        0.752593    0.020082    1.939747
     10          6           0       -0.481295   -0.283871    2.491580
     11          6           0       -1.606638   -0.264368    1.672764
     12          6           0       -3.225871   -2.256606   -0.725572
     13          1           0       -2.367979    0.059277   -1.633002
     14          1           0       -3.312037    1.875791    0.588762
     15          1           0       -3.266410    2.156798   -1.153098
     16          1           0       -5.497772    1.081152    0.501202
     17          1           0       -5.577827    1.547390   -1.203966
     18          1           0       -4.912112   -0.627600   -1.957008
     19          1           0       -5.746601   -1.113550   -0.458304
     20          1           0       -2.592547   -0.510650    2.066859
     21          1           0        1.682003    0.028781    2.504056
     22          1           0        1.804580    0.545548    0.222729
     23          1           0       -0.031991    0.584559   -1.213363
     24          1           0       -2.291394   -2.546898   -0.227240
     25          1           0       -3.063078   -2.290936   -1.821650
     26          1           0       -3.989105   -2.999375   -0.466246
     27          1           0       -0.553505   -0.532656    3.547807
     28          8           0        3.158730    0.860459   -0.401799
     29          1           0        3.785492    0.183261   -0.734901
     30          1           0        3.594073    1.730224   -0.414208
     31          8           0        4.235415    3.410178   -0.383208
     32          1           0        4.322402    3.950962   -1.172685
     33          1           0        4.919030    3.716247    0.218565
     34          8           0        4.746006   -1.108318   -1.308027
     35          1           0        5.515218   -1.484324   -0.842778
     36          1           0        4.896945   -1.263650   -2.242582
     37          8           0        6.895951   -2.205020    0.052796
     38          1           0        7.800930   -1.883085    0.032524
     39          1           0        6.956519   -3.144700    0.244062
 ---------------------------------------------------------------------

 SCF Done:  E(RwB97XD) =  -805.022289448     A.U. after    1 cycles

 The electronic state is 1-A.
 Alpha  occ. eigenvalues --  -19.39849 -19.39466 -19.37094 -19.36599 -14.65608
 Alpha  occ. eigenvalues --  -14.54220 -10.49524 -10.49166 -10.45827 -10.45440
 Alpha  occ. eigenvalues --  -10.45346 -10.44076 -10.40564 -10.40526 -10.39543
 Alpha  occ. eigenvalues --  -10.38237  -1.24280  -1.24039  -1.23838  -1.21738
 Alpha  occ. eigenvalues --   -1.20339  -1.14707  -1.06350  -1.03066  -0.98070
 Alpha  occ. eigenvalues --   -0.93807  -0.88799  -0.87494  -0.86453  -0.81102
 Alpha  occ. eigenvalues --   -0.77432  -0.76100  -0.74549  -0.74188  -0.73426
 Alpha  occ. eigenvalues --   -0.73375  -0.72623  -0.71942  -0.69412  -0.67405
 Alpha  occ. eigenvalues --   -0.67370  -0.66181  -0.63367  -0.63025  -0.62172
 Alpha  occ. eigenvalues --   -0.61396  -0.60938  -0.59911  -0.58826  -0.57635
 Alpha  occ. eigenvalues --   -0.56048  -0.55853  -0.54987  -0.54058  -0.53292
 Alpha  occ. eigenvalues --   -0.52652  -0.52297  -0.51450  -0.51369  -0.50928
 Alpha  occ. eigenvalues --   -0.50490  -0.49790  -0.47579  -0.40289
 Alpha virt. eigenvalues --   -0.12462  -0.09105  -0.06154  -0.04742  -0.04548
 Alpha virt. eigenvalues --   -0.04115  -0.03034  -0.02780  -0.02473  -0.01969
 Alpha virt. eigenvalues --   -0.01723  -0.01380  -0.00826  -0.00656  -0.00575

 Mulliken charges:
               1
     1  C    0.943200
     2  C    0.774499
     3  N   -0.435120
     4  C    1.199004
     5  C    0.676923
     6  C    1.297882
     7  C    0.598609
     8  N   -0.060864
     9  C    0.792400
    10  C    0.157837
    11  C    1.139025
    12  C    0.844442
    13  H   -0.810086
    14  H   -0.440766
    15  H   -0.383445
    16  H   -0.330062
    17  H   -0.281256
    18  H   -0.379868
    19  H   -0.533711
    20  H   -0.972740
    21  H   -0.666722
    22  H    0.150442
    23  H   -0.861757
    24  H   -0.339703
    25  H   -0.165458
    26  H   -0.239356
    27  H   -0.587736
    28  O   -0.482420
    29  H    0.266282
    30  H    0.200075
    31  O   -0.333862
    32  H    0.152279
    33  H    0.151513
    34  O   -0.382972
    35  H    0.232639
    36  H    0.132800
    37  O   -0.315821
    38  H    0.147663
    39  H    0.146209
 Sum of Mulliken charges =   1.00000

 Dipole moment (field-independent basis, Debye):
    X=              8.7703    Y=              0.6724    Z=              0.6719  Tot=              8.8216
 Quadrupole moment (field-independent basis, Debye-Ang):
   XX=             15.1175   YY=            -68.7649   ZZ=            -78.1999
   XY=             -1.9588   XZ=             -3.4530   YZ=             -3.6958

  Exact polarizability: 199.380   3.606 140.422  12.493  -4.527 156.384
 Approx polarizability: 190.936   5.133 149.544   4.453  -8.843 183.671

                      1                      2                      3
                      A                      A                      A
 Frequencies --      3.7867                10.3060                16.9338
 Red. masses --      4.4232                 4.5725                 4.2327
 Frc consts  --      0.0000                 0.0003                 0.0007
 IR Inten    --      0.1028                 0.2349                 0.9178

                      4                      5                      6
                      A                      A                      A
 Frequencies --     17.5869                26.5281                33.4908
 Red. masses --      4.8606                 4.2091                 4.7708
 Frc consts  --      0.0009                 0.0017                 0.0032
 IR Inten    --      1.8198                 0.4187                 2.2273

                      7                      8                      9
                      A                      A                      A
 Frequencies --     37.8241                40.2453                50.6943
 Red. masses --      2.6769                 4.8588                 6.1501
 Frc consts  --      0.0023                 0.0046                 0.0093
 IR Inten    --      0.4646                 0.1720                 4.4987

                     10                     11                     12
                      A                      A                      A
 Frequencies --     91.6512                98.5678               101.4226
 Red. masses --      1.0535                 2.9423                 1.0908
 Frc consts  --      0.0052                 0.0168                 0.0066
 IR Inten    --     41.1745                 2.2041                16.9362

                     13                     14                     15
                      A                      A                      A
 Frequencies --    113.0886               142.4641               159.2128
 Red. masses --      4.3242                 5.4549                 1.9850
 Frc consts  --      0.0326                 0.0652                 0.0296
 IR Inten    --      1.9625                28.7886                 1.4870

                     16                     17                     18
                      A                      A                      A
 Frequencies --    186.4779               188.9260               194.4809
 Red. masses --      1.1327                 2.8999                 1.1576
 Frc consts  --      0.0232                 0.0610                 0.0258
 IR Inten    --     86.7591                 0.9023               289.6843

                     19                     20                     21
                      A                      A                      A
 Frequencies --    210.1765               217.1743               230.4239
 Red. masses --      1.9249                 1.9474                 1.0824
 Frc consts  --      0.0501                 0.0541                 0.0339
 IR Inten    --     45.5635                66.1219                16.4347

                     22                     23                     24
                      A                      A                      A
 Frequencies --    244.4511               247.9204               263.7547
 Red. masses --      1.1399                 1.0569                 2.7693
 Frc consts  --      0.0401                 0.0383                 0.1135
 IR Inten    --      0.6265                59.6394                 3.0049

                     25                     26                     27
                      A                      A                      A
 Frequencies --    282.6627               303.1765               351.5927
 Red. masses --      5.2156                 4.3627                 4.8950
 Frc consts  --      0.2455                 0.2363                 0.3565
 IR Inten    --     34.0977                 6.4086                19.0620

                     28                     29                     30
                      A                      A                      A
 Frequencies --    361.2829               415.2801               416.7587
 Red. masses --      2.9436                 1.3069                 1.9775
 Frc consts  --      0.2264                 0.1328                 0.2024
 IR Inten    --      9.1701                 9.0668                 8.1346

                     31                     32                     33
                      A                      A                      A
 Frequencies --    419.7891               547.8494               591.7016
 Red. masses --      3.0492                 3.8967                 3.0516
 Frc consts  --      0.3166                 0.6891                 0.6295
 IR Inten    --      3.5101                 1.4581                 0.2027

                     34                     35                     36
                      A                      A                      A
 Frequencies --    637.1528               646.5662               668.8456
 Red. masses --      5.4024                 3.1127                 4.4246
 Frc consts  --      1.2922                 0.7667                 1.1662
 IR Inten    --     52.1113                 2.7617                 3.2880

                     37                     38                     39
                      A                      A                      A
 Frequencies --    689.4550               714.4663               724.3147
 Red. masses --      1.1071                 1.9499                 1.0540
 Frc consts  --      0.3101                 0.5864                 0.3258
 IR Inten    --     21.2697                42.7713               143.0758

                     40                     41                     42
                      A                      A                      A
 Frequencies --    743.0191               775.1090               839.7358
 Red. masses --      1.0456                 1.7481                 1.6312
 Frc consts  --      0.3401                 0.6188                 0.6777
 IR Inten    --     86.0634                 5.4126                34.8692

                     43                     44                     45
                      A                      A                      A
 Frequencies --    852.0048               856.2010               923.7615
 Red. masses --      1.5531                 1.2107                 1.6839
 Frc consts  --      0.6643                 0.5229                 0.8466
 IR Inten    --     35.2964                46.5385                10.7707

                     46                     47                     48
                      A                      A                      A
 Frequencies --    936.0048               949.9563               968.3862
 Red. masses --      3.4530                 1.6056                 2.0809
 Frc consts  --      1.7824                 0.8537                 1.1497
 IR Inten    --      5.9616                 6.7776                 2.7411

                     49                     50                     51
                      A                      A                      A
 Frequencies --    986.5608              1002.3292              1041.9850
 Red. masses --      1.4593                 1.8552                 3.8033
 Frc consts  --      0.8368                 1.0982                 2.4330
 IR Inten    --      2.3592                 1.1222                 6.9749

                     52                     53                     54
                      A                      A                      A
 Frequencies --   1043.7782              1061.0991              1080.9823
 Red. masses --      1.3960                 2.3146                 1.6868
 Frc consts  --      0.8961                 1.5354                 1.1613
 IR Inten    --      1.0016                 2.1008                15.9493

                     55                     56                     57
                      A                      A                      A
 Frequencies --   1087.2646              1112.6671              1137.9328
 Red. masses --      2.1597                 2.1987                 1.2883
 Frc consts  --      1.5043                 1.6038                 0.9829
 IR Inten    --      5.2636                11.0171                 5.8290

                     58                     59                     60
                      A                      A                      A
 Frequencies --   1140.7633              1198.4782              1207.2145
 Red. masses --      1.4583                 1.5026                 1.2798
 Frc consts  --      1.1181                 1.2716                 1.0989
 IR Inten    --      5.2818                10.9384                 5.1019

                     61                     62                     63
                      A                      A                      A
 Frequencies --   1220.3860              1244.2077              1257.2542
 Red. masses --      1.5684                 1.6246                 1.6237
 Frc consts  --      1.3763                 1.4818                 1.5122
 IR Inten    --      8.8242                 7.5249                12.7184

                     64                     65                     66
                      A                      A                      A
 Frequencies --   1270.9847              1292.2489              1305.3851
 Red. masses --      1.8901                 1.7320                 1.4612
 Frc consts  --      1.7990                 1.7041                 1.4670
 IR Inten    --     20.2059                 7.1152                18.5745

                     67                     68                     69
                      A                      A                      A
 Frequencies --   1306.4721              1322.7684              1329.1657
 Red. masses --      1.1029                 1.5785                 1.4043
 Frc consts  --      1.1092                 1.6273                 1.4617
 IR Inten    --     26.9582                14.6083                 5.1996

                     70                     71                     72
                      A                      A                      A
 Frequencies --   1349.0007              1358.4077              1379.1599
 Red. masses --      1.4809                 2.0553                 1.8042
 Frc consts  --      1.5878                 2.2345                 2.0219
 IR Inten    --      4.6393                 3.3558                26.0900

                     73                     74                     75
                      A                      A                      A
 Frequencies --   1390.1865              1442.4958              1454.2997
 Red. masses --      1.6311                 1.5248                 1.4522
 Frc consts  --      1.8573                 1.8694                 1.8096
 IR Inten    --     13.1460                11.4634                 5.6138

                     76                     77                     78
                      A                      A                      A
 Frequencies --   1478.3485              1483.5492              1488.7580
 Red. masses --      1.0453                 1.0712                 1.0815
 Frc consts  --      1.3460                 1.3891                 1.4122
 IR Inten    --     11.9065                 6.5229                 3.1013

                     79                     80                     81
                      A                      A                      A
 Frequencies --   1503.3239              1516.1078              1521.5590
 Red. masses --      1.0885                 1.8443                 1.2486
 Frc consts  --      1.4494                 2.4977                 1.7032
 IR Inten    --     10.8399                33.7291                10.8525

                     82                     83                     84
                      A                      A                      A
 Frequencies --   1618.6410              1625.9520              1630.4262
 Red. masses --      1.4358                 1.4277                 1.0979
 Frc consts  --      2.2164                 2.2238                 1.7196
 IR Inten    --     76.3097                44.6532                80.5698

                     85                     86                     87
                      A                      A                      A
 Frequencies --   1646.5253              1671.4817              1700.5167
 Red. masses --      1.0999                 1.0976                 4.6550
 Frc consts  --      1.7568                 1.8067                 7.9310
 IR Inten    --     19.1548                19.8133                 5.1778

                     88                     89                     90
                      A                      A                      A
 Frequencies --   1718.2876              2660.7831              2927.2727
 Red. masses --      2.6661                 1.1159                 1.0820
 Frc consts  --      4.6378                 4.6547                 5.4627
 IR Inten    --      7.5083              3729.2022                42.7004

                     91                     92                     93
                      A                      A                      A
 Frequencies --   2955.0203              2961.3050              3086.4457
 Red. masses --      1.0709                 1.0573                 1.0617
 Frc consts  --      5.5096                 5.4630                 5.9592
 IR Inten    --     43.4703                97.5324                18.8105

                     94                     95                     96
                      A                      A                      A
 Frequencies --   3089.8933              3101.5104              3119.0579
 Red. masses --      1.0802                 1.0650                 1.0893
 Frc consts  --      6.0761                 6.0357                 6.2438
 IR Inten    --     28.8142                21.3350                24.8220

                     97                     98                     99
                      A                      A                      A
 Frequencies --   3135.7823              3144.0065              3159.3105
 Red. masses --      1.1058                 1.1019                 1.1065
 Frc consts  --      6.4067                 6.4176                 6.5073
 IR Inten    --      2.9851                18.0485                24.1901

                    100                    101                    102
                      A                      A                      A
 Frequencies --   3222.9176              3236.2759              3242.5702
 Red. masses --      1.0917                 1.0951                 1.0936
 Frc consts  --      6.6810                 6.7576                 6.7744
 IR Inten    --      0.8230                 0.8130                 1.8907

                    103                    104                    105
                      A                      A                      A
 Frequencies --   3259.3576              3503.3330              3645.9699
 Red. masses --      1.0997                 1.0606                 1.0585
 Frc consts  --      6.8832                 7.6698                 8.2904
 IR Inten    --      0.9339              1194.4331               599.2690

                    106                    107                    108
                      A                      A                      A
 Frequencies --   3675.6995              3877.2663              3877.6187
 Red. masses --      1.0742                 1.0453                 1.0452
 Frc consts  --      8.5507                 9.2584                 9.2592
 IR Inten    --    813.8378                22.2327                26.2003

                    109                    110                    111
                      A                      A                      A
 Frequencies --   3954.8066              3982.8373              3984.0174
 Red. masses --      1.0696                 1.0828                 1.0829
 Frc consts  --      9.8565                10.1200                10.1270
 IR Inten    --     95.4563               106.7472               109.9964

 - Thermochemistry -
 -------------------
 Temperature   298.150 Kelvin.  Pressure   1.00000 Atm.
 Atom     1 has atomic number  6 and mass  12.00000

 Molecular mass:   235.16578 amu.
 Principal axes and moments of inertia in atomic units:
                           1         2         3
     Eigenvalues --  2720.46835********************
           X            1.00000   0.00009   0.00173
           Y           -0.00009   1.00000   0.00098
           Z           -0.00173  -0.00098   1.00000
 This molecule is an asymmetric top.
 Rotational symmetry number  1.
 Warning -- assumption of classical behavior for rotation
           may cause significant error
 Rotational temperatures (Kelvin)      0.03184     0.00698     0.00654
 Rotational constants (GHZ):           0.66339     0.14537     0.13620
 Zero-point vibrational energy     891054.5 (Joules/Mol)
                                  212.96713 (Kcal/Mol)
 Warning -- explicit consideration of  33 degrees of freedom as
           vibrations may cause significant error
 Vibrational temperatures:      5.45    14.83    24.36    25.30    38.17
          (Kelvin)             48.19    54.42    57.90    72.94   131.87
                              141.82   145.92   162.71   204.97   229.07
                              268.30   271.82   279.81   302.40   312.47
                              331.53   351.71   356.70   379.48   406.69
                              436.20   505.86   519.81   597.50   599.62
                              603.98   788.23   851.33   916.72   930.26
                              962.32   991.97  1027.96  1042.13  1069.04
                             1115.21  1208.19  1225.84  1231.88  1329.09
                             1346.70  1366.78  1393.29  1419.44  1442.13
                             1499.18  1501.76  1526.68  1555.29  1564.33
                             1600.88  1637.23  1641.30  1724.34  1736.91
                             1755.86  1790.14  1808.91  1828.66  1859.26
                             1878.16  1879.72  1903.17  1912.37  1940.91
                             1954.45  1984.30  2000.17  2075.43  2092.41
                             2127.01  2134.50  2141.99  2162.95  2181.34
                             2189.18  2328.86  2339.38  2345.82  2368.98
                             2404.89  2446.66  2472.23  3828.27  4211.69
                             4251.62  4260.66  4440.71  4445.67  4462.38
                             4487.63  4511.69  4523.52  4545.54  4637.06
                             4656.28  4665.34  4689.49  5040.51  5245.74
                             5288.51  5578.52  5579.03  5690.08  5730.41
                             5732.11

 Zero-point correction=                           0.339385 (Hartree/Particle)
 Thermal correction to Energy=                    0.363792
 Thermal correction to Enthalpy=                  0.364736
 Thermal correction to Gibbs Free Energy=         0.276339
 Sum of electronic and zero-point Energies=           -804.682905
 Sum of electronic and thermal Energies=              -804.658497
 Sum of electronic and thermal Enthalpies=            -804.657553
 Sum of electronic and thermal Free Energies=         -804.745951

                     E (Thermal)             CV                S
                      KCal/Mol        Cal/Mol-Kelvin    Cal/Mol-Kelvin
 Total                  228.283             81.144            186.049
 Electronic               0.000              0.000              0.000
 Translational            0.889              2.981             42.267
 Rotational               0.889              2.981             34.458
 Vibrational            226.506             75.183            109.323
 Vibration     1          0.593              1.987              9.941
 Vibration     2          0.593              1.987              7.951
 Vibration     3          0.593              1.986              6.965
 Vibration     4          0.593              1.986              6.890
 Vibration     5          0.593              1.984              6.073
 Vibration     6          0.594              1.983              5.611
 Vibration     7          0.594              1.982              5.370
 Vibration     8          0.594              1.981              5.247
 Vibration     9          0.595              1.977              4.790
 Vibration    10          0.602              1.955              3.625
 Vibration    11          0.604              1.950              3.482
 Vibration    12          0.604              1.948              3.427
 Vibration    13          0.607              1.939              3.215
 Vibration    14          0.616              1.911              2.771
 Vibration    15          0.621              1.892              2.559
 Vibration    16          0.632              1.858              2.263
 Vibration    17          0.633              1.855              2.238
 Vibration    18          0.635              1.848              2.185
 Vibration    19          0.642              1.825              2.042
 Vibration    20          0.646              1.815              1.983
 Vibration    21          0.652              1.795              1.876
 Vibration    22          0.660              1.772              1.770
 Vibration    23          0.662              1.766              1.745
 Vibration    24          0.670              1.739              1.637
 Vibration    25          0.682              1.706              1.518
 Vibration    26          0.695              1.668              1.399
 Vibration    27          0.728              1.572              1.159
 Vibration    28          0.735              1.552              1.117
 Vibration    29          0.779              1.437              0.908
 Vibration    30          0.780              1.434              0.903
 Vibration    31          0.782              1.427              0.893
 Vibration    32          0.903              1.144              0.549
 Vibration    33          0.949              1.049              0.464

                           ! Non-Optimized Parameters !
 Normal termination of Gaussian 16 at Fri Jan 27 21:52:24 2023.
