 Gaussian 16, Revision A.03,
 Gaussian 16:  ES64L-G16RevA.03 25-Dec-2016

 -----------------------------------------
 # wB97XD/aug-cc-pVDZ Temperature=130 Freq
 -----------------------------------------

 ----------------------------
 p-Pyr Nicotine, N anti, 4H2O
 ----------------------------
 Symbolic Z-matrix:
 Charge =  1 Multiplicity = 1

                         Standard orientation:
 ---------------------------------------------------------------------
 Center     Atomic      Atomic             Coordinates (Angstroms)
 Number     Number       Type             X           Y           Z
 ---------------------------------------------------------------------
      1          7           0       -0.925998   -1.444326    0.696313
      2          6           0       -0.164488   -1.608050   -0.600811
      3          6           0       -1.144941   -1.026429   -1.617301
      4          6           0       -2.515985   -1.528209   -1.141385
      5          6           0       -2.373253   -1.710327    0.379992
      6          6           0        1.197227   -0.972287   -0.495461
      7          6           0        1.307318    0.414864   -0.422961
      8          7           0        2.450161    1.062680   -0.193604
      9          6           0        3.568294    0.335806   -0.087994
     10          6           0        3.579134   -1.052888   -0.201079
     11          6           0        2.370806   -1.718386   -0.388834
     12          8           0       -0.995011    1.059258    1.715018
     13          8           0       -3.042601    1.636892    0.022576
     14          8           0        0.898930    3.129462    0.841732
     15          1           0       -2.607938   -2.728694    0.706371
     16          1           0       -2.763826   -2.485862   -1.612495
     17          1           0       -3.308056   -0.813231   -1.377976
     18          1           0       -1.109086    0.069560   -1.597730
     19          1           0       -0.895227   -1.352994   -2.631162
     20          1           0       -2.971954   -1.002525    0.960126
     21          1           0       -0.061988   -2.691703   -0.754396
     22          1           0        0.424328    1.041254   -0.538245
     23          1           0        4.490815    0.886499    0.096746
     24          1           0        4.516672   -1.599888   -0.123298
     25          1           0        2.344997   -2.807474   -0.448607
     26          6           0       -0.402348   -2.235575    1.829697
     27          1           0       -0.855597   -0.433873    0.992761
     28          1           0       -0.330313    1.761491    1.633169
     29          1           0       -1.806053    1.412587    1.298311
     30          1           0        1.691379    2.648214    0.517419
     31          1           0        1.213889    3.901520    1.318342
     32          1           0       -2.465642    2.193669   -0.537471
     33          1           0       -3.850455    2.137531    0.160730
     34          8           0       -0.962672    2.890147   -1.195714
     35          1           0       -0.315968    3.208077   -0.538292
     36          1           0       -0.896101    3.475167   -1.953778
     37          1           0       -0.447507   -3.300874    1.579027
     38          1           0       -1.015981   -2.029275    2.711379
     39          1           0        0.630715   -1.934845    2.028024
 ---------------------------------------------------------------------

 SCF Done:  E(RwB97XD) =  -805.042734775     A.U. after   15 cycles

 The electronic state is 1-A.
 Alpha  occ. eigenvalues --  -19.40293 -19.39428 -19.38866 -19.38523 -14.67853
 Alpha  occ. eigenvalues --  -14.58594 -10.49220 -10.47431 -10.47319 -10.46302
 Alpha  occ. eigenvalues --  -10.46288 -10.45099 -10.44991 -10.43498 -10.43154
 Alpha  occ. eigenvalues --  -10.42704  -1.25021  -1.24517  -1.23786  -1.23030
 Alpha  occ. eigenvalues --   -1.21990  -1.18254  -1.06178  -1.03937  -1.01112
 Alpha  occ. eigenvalues --   -0.96449  -0.93737  -0.88161  -0.85826  -0.84358
 Alpha  occ. eigenvalues --   -0.82715  -0.77780  -0.75901  -0.75167  -0.74381
 Alpha  occ. eigenvalues --   -0.74115  -0.73530  -0.72779  -0.71193  -0.69785
 Alpha  occ. eigenvalues --   -0.67957  -0.66307  -0.65124  -0.64316  -0.63456
 Alpha  occ. eigenvalues --   -0.62618  -0.62059  -0.61912  -0.61271  -0.60713
 Alpha  occ. eigenvalues --   -0.60315  -0.59484  -0.58280  -0.57227  -0.57052
 Alpha  occ. eigenvalues --   -0.56204  -0.54532  -0.53751  -0.52883  -0.52018
 Alpha  occ. eigenvalues --   -0.51843  -0.49872  -0.48067  -0.46664
 Alpha virt. eigenvalues --   -0.09689  -0.08557  -0.06429  -0.05783  -0.04870
 Alpha virt. eigenvalues --   -0.04562  -0.03699  -0.03154  -0.03052  -0.02675
 Alpha virt. eigenvalues --   -0.02186  -0.01669  -0.01163  -0.00782  -0.00520

 Mulliken charges:
               1
     1  N   -0.565226
     2  C    1.028465
     3  C    1.106212
     4  C    0.913662
     5  C    1.059496
     6  C    0.864891
     7  C    0.849815
     8  N   -0.298805
     9  C    0.204186
    10  C    0.630727
    11  C    1.185133
    12  O   -0.601685
    13  O   -0.472324
    14  O   -0.690800
    15  H   -0.399977
    16  H   -0.302149
    17  H   -0.298231
    18  H   -0.470719
    19  H   -0.474369
    20  H   -0.445740
    21  H   -0.994915
    22  H   -1.242907
    23  H   -0.570471
    24  H   -0.610017
    25  H   -0.892404
    26  C    1.096761
    27  H    0.044583
    28  H    0.301177
    29  H    0.298805
    30  H    0.360156
    31  H    0.276762
    32  H    0.312102
    33  H    0.179558
    34  O   -0.508291
    35  H    0.264933
    36  H    0.245439
    37  H   -0.163414
    38  H   -0.114766
    39  H   -0.105651
 Sum of Mulliken charges =   1.00000

 Dipole moment (field-independent basis, Debye):
    X=             -0.5597    Y=             -1.2557    Z=              0.2568  Tot=              1.3986
 Quadrupole moment (field-independent basis, Debye-Ang):
   XX=            -62.6665   YY=            -54.7342   ZZ=            -90.0623
   XY=             -0.3068   XZ=              3.1338   YZ=             -2.9555

  Exact polarizability: 186.987   3.292 163.575   4.890   0.888 127.535
 Approx polarizability: 191.613   1.552 183.936   5.797   2.352 145.866

                      1                      2                      3
                      A                      A                      A
 Frequencies --     35.4310                52.9909                63.8252
 Red. masses --      5.1923                 4.3591                 3.6065
 Frc consts  --      0.0038                 0.0072                 0.0087
 IR Inten    --      1.2854                 1.6644                 0.0229

                      4                      5                      6
                      A                      A                      A
 Frequencies --     72.3865                78.8061                88.7494
 Red. masses --      4.7412                 5.0619                 4.3179
 Frc consts  --      0.0146                 0.0185                 0.0200
 IR Inten    --      3.0511                 1.4967                 2.7439

                      7                      8                      9
                      A                      A                      A
 Frequencies --     96.8138               106.7421               117.1978
 Red. masses --      3.5408                 3.0757                 3.5915
 Frc consts  --      0.0196                 0.0206                 0.0291
 IR Inten    --      0.5296                 1.1318                 4.7390

                     10                     11                     12
                      A                      A                      A
 Frequencies --    127.9020               154.0542               179.0913
 Red. masses --      2.8985                 5.0488                 5.1105
 Frc consts  --      0.0279                 0.0706                 0.0966
 IR Inten    --      1.7165                 4.7421                11.3135

                     13                     14                     15
                      A                      A                      A
 Frequencies --    209.5348               229.7340               242.5087
 Red. masses --      4.5999                 4.4525                 2.4789
 Frc consts  --      0.1190                 0.1385                 0.0859
 IR Inten    --     16.3561                16.8040                 2.0769

                     16                     17                     18
                      A                      A                      A
 Frequencies --    254.6272               257.3591               260.1963
 Red. masses --      1.2977                 4.4045                 2.4232
 Frc consts  --      0.0496                 0.1719                 0.0967
 IR Inten    --      1.4073                23.9888                18.9929

                     19                     20                     21
                      A                      A                      A
 Frequencies --    265.1984               272.2102               325.5357
 Red. masses --      1.6811                 2.8587                 1.1075
 Frc consts  --      0.0697                 0.1248                 0.0691
 IR Inten    --     37.3549                36.8136                59.7182

                     22                     23                     24
                      A                      A                      A
 Frequencies --    332.3283               344.9945               383.4319
 Red. masses --      3.9616                 1.0966                 2.9537
 Frc consts  --      0.2578                 0.0769                 0.2559
 IR Inten    --      1.4742                11.3911                 1.4292

                     25                     26                     27
                      A                      A                      A
 Frequencies --    414.8539               419.9151               428.9343
 Red. masses --      1.2752                 2.1702                 2.7645
 Frc consts  --      0.1293                 0.2255                 0.2997
 IR Inten    --     55.8822                34.3246                 8.0084

                     28                     29                     30
                      A                      A                      A
 Frequencies --    467.1560               500.1881               542.0044
 Red. masses --      1.0712                 1.0739                 3.8976
 Frc consts  --      0.1377                 0.1583                 0.6746
 IR Inten    --     62.5141                34.0022                 6.8707

                     31                     32                     33
                      A                      A                      A
 Frequencies --    556.2188               583.0934               637.8495
 Red. masses --      2.7438                 1.0574                 3.3942
 Frc consts  --      0.5001                 0.2118                 0.8136
 IR Inten    --      4.3282                13.2296                 9.7807

                     34                     35                     36
                      A                      A                      A
 Frequencies --    642.4814               653.2952               671.3711
 Red. masses --      3.9414                 1.1766                 4.9892
 Frc consts  --      0.9586                 0.2959                 1.3250
 IR Inten    --     13.6641               184.3324                 1.8641

                     37                     38                     39
                      A                      A                      A
 Frequencies --    731.6248               747.3936               755.9841
 Red. masses --      1.5180                 1.1525                 1.1814
 Frc consts  --      0.4788                 0.3793                 0.3978
 IR Inten    --    121.2529               135.4049               154.1937

                     40                     41                     42
                      A                      A                      A
 Frequencies --    803.4815               816.4197               823.0712
 Red. masses --      1.5770                 1.0922                 1.6892
 Frc consts  --      0.5998                 0.4289                 0.6742
 IR Inten    --     43.3334               137.1461                 5.2877

                     43                     44                     45
                      A                      A                      A
 Frequencies --    844.3851               860.3639               898.8634
 Red. masses --      1.7318                 1.0672                 3.2593
 Frc consts  --      0.7275                 0.4654                 1.5515
 IR Inten    --      3.1020                30.7425                 3.5112

                     46                     47                     48
                      A                      A                      A
 Frequencies --    932.8772               947.3544               977.5760
 Red. masses --      2.4905                 1.7564                 1.6017
 Frc consts  --      1.2770                 0.9288                 0.9018
 IR Inten    --      8.2381                 3.8964                 4.2643

                     49                     50                     51
                      A                      A                      A
 Frequencies --    984.2336              1000.2263              1029.2851
 Red. masses --      1.5312                 1.6041                 1.4538
 Frc consts  --      0.8739                 0.9455                 0.9074
 IR Inten    --      2.5516                 7.3828                 0.9882

                     52                     53                     54
                      A                      A                      A
 Frequencies --   1039.0670              1057.0438              1067.8915
 Red. masses --      1.8879                 4.8747                 2.7028
 Frc consts  --      1.2009                 3.2091                 1.8160
 IR Inten    --     15.3113                 6.6746                 4.0518

                     55                     56                     57
                      A                      A                      A
 Frequencies --   1089.0507              1113.3759              1128.0776
 Red. masses --      2.1960                 2.3351                 1.3346
 Frc consts  --      1.5345                 1.7055                 1.0007
 IR Inten    --      2.1998                 3.7625                 5.2855

                     58                     59                     60
                      A                      A                      A
 Frequencies --   1152.7462              1153.9648              1215.8056
 Red. masses --      1.6106                 2.2449                 1.6855
 Frc consts  --      1.2609                 1.7613                 1.4679
 IR Inten    --      4.2096                18.7023                 2.9196

                     61                     62                     63
                      A                      A                      A
 Frequencies --   1222.3416              1234.0849              1240.5691
 Red. masses --      1.5137                 1.6113                 1.4406
 Frc consts  --      1.3325                 1.4458                 1.3062
 IR Inten    --      3.6661                 2.0834                 7.7235

                     64                     65                     66
                      A                      A                      A
 Frequencies --   1272.4222              1283.6215              1311.1701
 Red. masses --      1.3836                 1.2853                 2.3863
 Frc consts  --      1.3198                 1.2478                 2.4171
 IR Inten    --      3.4753                 1.7289                 0.6271

                     67                     68                     69
                      A                      A                      A
 Frequencies --   1319.2172              1348.6036              1364.7860
 Red. masses --      1.7425                 1.3872                 1.2815
 Frc consts  --      1.7867                 1.4865                 1.4064
 IR Inten    --      1.1204                 1.6521                 1.1933

                     70                     71                     72
                      A                      A                      A
 Frequencies --   1382.8313              1387.9589              1408.9151
 Red. masses --      1.4747                 1.5093                 1.4403
 Frc consts  --      1.6615                 1.7130                 1.6845
 IR Inten    --      2.2972                 6.7366                 1.9369

                     73                     74                     75
                      A                      A                      A
 Frequencies --   1452.4423              1480.3678              1481.5112
 Red. masses --      1.1802                 1.7742                 1.2203
 Frc consts  --      1.4669                 2.2908                 1.5780
 IR Inten    --      2.8876                18.1721                19.2135

                     76                     77                     78
                      A                      A                      A
 Frequencies --   1484.7706              1488.1791              1499.5062
 Red. masses --      1.0488                 1.0845                 1.1022
 Frc consts  --      1.3622                 1.4152                 1.4602
 IR Inten    --      5.1920                 2.0184                15.3449

                     79                     80                     81
                      A                      A                      A
 Frequencies --   1517.2466              1538.0878              1555.7838
 Red. masses --      1.1126                 1.9429                 1.2349
 Frc consts  --      1.5090                 2.7081                 1.7610
 IR Inten    --     13.0938                24.1128                38.9886

                     82                     83                     84
                      A                      A                      A
 Frequencies --   1574.6316              1624.5641              1648.9876
 Red. masses --      1.1139                 1.0825                 1.1875
 Frc consts  --      1.6272                 1.6832                 1.9026
 IR Inten    --     40.4315               168.8426                49.1206

                     85                     86                     87
                      A                      A                      A
 Frequencies --   1663.4832              1671.9627              1688.9794
 Red. masses --      2.5541                 1.2574                 5.0172
 Frc consts  --      4.1642                 2.0710                 8.4326
 IR Inten    --     23.0119                 3.4565                29.5633

                     88                     89                     90
                      A                      A                      A
 Frequencies --   1698.5320              2908.8348              3078.3834
 Red. masses --      1.0817                 1.0906                 1.0547
 Frc consts  --      1.8386                 5.4371                 5.8889
 IR Inten    --     29.8403               927.1535                 2.7766

                     91                     92                     93
                      A                      A                      A
 Frequencies --   3081.3026              3096.0239              3106.4955
 Red. masses --      1.0626                 1.0665                 1.0641
 Frc consts  --      5.9439                 6.0233                 6.0505
 IR Inten    --      1.1875                 5.0185                12.5268

                     94                     95                     96
                      A                      A                      A
 Frequencies --   3115.9617              3163.2081              3172.6660
 Red. masses --      1.0624                 1.1022                 1.1061
 Frc consts  --      6.0775                 6.4977                 6.5599
 IR Inten    --     10.0063                 3.0054                 1.3376

                     97                     98                     99
                      A                      A                      A
 Frequencies --   3182.8700              3186.4650              3191.0590
 Red. masses --      1.1073                 1.1076                 1.1070
 Frc consts  --      6.6093                 6.6258                 6.6412
 IR Inten    --      0.7459                 2.3474                 1.3580

                    100                    101                    102
                      A                      A                      A
 Frequencies --   3199.4157              3212.8254              3230.1012
 Red. masses --      1.0917                 1.0919                 1.0916
 Frc consts  --      6.5843                 6.6405                 6.7103
 IR Inten    --      2.8753                 4.8136                 7.0301

                    103                    104                    105
                      A                      A                      A
 Frequencies --   3238.2682              3479.2427              3543.6467
 Red. masses --      1.0985                 1.0639                 1.0629
 Frc consts  --      6.7868                 7.5882                 7.8640
 IR Inten    --      2.2479               706.7430               341.0346

                    106                    107                    108
                      A                      A                      A
 Frequencies --   3601.0064              3638.1698              3746.2632
 Red. masses --      1.0568                 1.0607                 1.0718
 Frc consts  --      8.0743                 8.2719                 8.8625
 IR Inten    --    630.6557               262.5856               452.2331

                    109                    110                    111
                      A                      A                      A
 Frequencies --   3935.1184              3936.9125              3944.7398
 Red. masses --      1.0681                 1.0689                 1.0700
 Frc consts  --      9.7448                 9.7616                 9.8101
 IR Inten    --    138.7542               113.2648               126.9721

 - Thermochemistry -
 -------------------
 Temperature   130.000 Kelvin.  Pressure   1.00000 Atm.
 Atom     1 has atomic number  7 and mass  14.00307

 Molecular mass:   235.16578 amu.
 Principal axes and moments of inertia in atomic units:
                           1         2         3
     Eigenvalues --  3477.203984312.363266134.43086
           X            0.99991   0.01105   0.00824
           Y           -0.01098   0.99990  -0.00869
           Z           -0.00833   0.00860   0.99993
 This molecule is an asymmetric top.
 Rotational symmetry number  1.
 Warning -- assumption of classical behavior for rotation
           may cause significant error
 Rotational temperatures (Kelvin)      0.02491     0.02009     0.01412
 Rotational constants (GHZ):           0.51902     0.41850     0.29420
 Zero-point vibrational energy     909602.8 (Joules/Mol)
                                  217.40028 (Kcal/Mol)
 Warning -- explicit consideration of  19 degrees of freedom as
           vibrations may cause significant error
 Vibrational temperatures:     50.98    76.24    91.83   104.15   113.38
          (Kelvin)            127.69   139.29   153.58   168.62   184.02
                              221.65   257.67   301.47   330.54   348.92
                              366.35   370.28   374.36   381.56   391.65
                              468.37   478.15   496.37   551.67   596.88
                              604.16   617.14   672.13   719.66   779.82
                              800.27   838.94   917.72   924.39   939.95
                              965.95  1052.64  1075.33  1087.69  1156.03
                             1174.65  1184.22  1214.88  1237.87  1293.26
                             1342.20  1363.03  1406.51  1416.09  1439.10
                             1480.91  1494.99  1520.85  1536.46  1566.90
                             1601.90  1623.05  1658.54  1660.30  1749.27
                             1758.68  1775.57  1784.90  1830.73  1846.85
                             1886.48  1898.06  1940.34  1963.62  1989.59
                             1996.96  2027.11  2089.74  2129.92  2131.56
                             2136.25  2141.16  2157.45  2182.98  2212.97
                             2238.43  2265.54  2337.39  2372.53  2393.38
                             2405.58  2430.06  2443.81  4185.16  4429.11
                             4433.31  4454.49  4469.55  4483.17  4551.15
                             4564.76  4579.44  4584.61  4591.22  4603.25
                             4622.54  4647.40  4659.15  5005.85  5098.52
                             5181.04  5234.51  5390.04  5661.76  5664.34
                             5675.60

 Zero-point correction=                           0.346449 (Hartree/Particle)
 Thermal correction to Energy=                    0.351365
 Thermal correction to Enthalpy=                  0.351777
 Thermal correction to Gibbs Free Energy=         0.331162
 Sum of electronic and zero-point Energies=           -804.696285
 Sum of electronic and thermal Energies=              -804.691370
 Sum of electronic and thermal Enthalpies=            -804.690958
 Sum of electronic and thermal Free Energies=         -804.711573

                     E (Thermal)             CV                S
                      KCal/Mol        Cal/Mol-Kelvin    Cal/Mol-Kelvin
 Total                  220.485             41.594             99.509
 Electronic               0.000              0.000              0.000
 Translational            0.388              2.981             38.143
 Rotational               0.388              2.981             30.412
 Vibrational            219.710             35.632             30.953
 Vibration     1          0.262              1.962              3.860
 Vibration     2          0.266              1.931              3.076
 Vibration     3          0.269              1.907              2.719
 Vibration     4          0.272              1.884              2.480
 Vibration     5          0.275              1.866              2.321
 Vibration     6          0.279              1.835              2.101
 Vibration     7          0.283              1.808              1.942
 Vibration     8          0.288              1.771              1.768
 Vibration     9          0.294              1.731              1.604
 Vibration    10          0.300              1.686              1.455
 Vibration    11          0.318              1.568              1.151
 Vibration    12          0.338              1.447              0.924
 Vibration    13          0.365              1.293              0.709
 Vibration    14          0.385              1.190              0.594
 Vibration    15          0.398              1.126              0.532
 Vibration    16          0.410              1.066              0.478
 Vibration    17          0.413              1.053              0.467
 Vibration    18          0.416              1.039              0.455
 Vibration    19          0.422              1.014              0.436

 Optimization completed.
    -- Stationary point found.
 Normal termination of Gaussian 16 at Thu Aug 27 14:00:05 2020.
