 Gaussian 16, Revision A.03,
 Gaussian 16:  ES64L-G16RevA.03 25-Dec-2016

 -----------------------------
 # wB97XD/aug-cc-pVDZ opt freq
 -----------------------------

 ----
 blah
 ----
 Symbolic Z-matrix:
 Charge =  1 Multiplicity = 1

 SCF Done:  E(RwB97XD) =  -805.031218581     A.U. after   15 cycles
 SCF Done:  E(RwB97XD) =  -805.031964081     A.U. after   12 cycles
 SCF Done:  E(RwB97XD) =  -805.032020321     A.U. after   13 cycles
 SCF Done:  E(RwB97XD) =  -805.032197365     A.U. after   12 cycles
 SCF Done:  E(RwB97XD) =  -805.032378843     A.U. after   12 cycles
 SCF Done:  E(RwB97XD) =  -805.032557961     A.U. after   12 cycles
 SCF Done:  E(RwB97XD) =  -805.032643791     A.U. after   11 cycles
 SCF Done:  E(RwB97XD) =  -805.032698419     A.U. after   11 cycles
 SCF Done:  E(RwB97XD) =  -805.032792778     A.U. after   11 cycles
 SCF Done:  E(RwB97XD) =  -805.032836136     A.U. after   10 cycles
 SCF Done:  E(RwB97XD) =  -805.032860557     A.U. after   11 cycles
 SCF Done:  E(RwB97XD) =  -805.032874926     A.U. after   11 cycles
 SCF Done:  E(RwB97XD) =  -805.032878129     A.U. after   10 cycles
 SCF Done:  E(RwB97XD) =  -805.032879476     A.U. after   10 cycles
 SCF Done:  E(RwB97XD) =  -805.032879912     A.U. after    9 cycles
 SCF Done:  E(RwB97XD) =  -805.032880084     A.U. after    8 cycles
 SCF Done:  E(RwB97XD) =  -805.032880190     A.U. after    8 cycles
 SCF Done:  E(RwB97XD) =  -805.032880236     A.U. after    8 cycles
 SCF Done:  E(RwB97XD) =  -805.032880246     A.U. after    8 cycles
 Optimization completed.
    -- Stationary point found.
 Normal termination of Gaussian 16 at Mon Jan 30 18:19:07 2023.

 ----------------------------------------------------------------------
 #N Geom=AllCheck Guess=TCheck SCRF=Check GenChk RwB97XD/Aug-CC-pVDZ Fr
 eq
 ----------------------------------------------------------------------

 Structure from the checkpoint file:  "/gscratch/scrubbed/gds001/Gau-23595.chk"
 ----
 blah
 ----
 Charge =  1 Multiplicity = 1

                         Standard orientation:
 ---------------------------------------------------------------------
 Center     Atomic      Atomic             Coordinates (Angstroms)
 Number     Number       Type             X           Y           Z
 ---------------------------------------------------------------------
      1          7           0        1.453669   -1.094092   -0.205144
      2          6           0        0.358174   -1.812742    0.461447
      3          6           0        0.625625   -1.620512    1.976906
      4          6           0        2.053056   -1.037186    2.055952
      5          6           0        2.620127   -1.286841    0.663035
      6          6           0       -0.985693   -1.313614   -0.018182
      7          6           0       -1.367353    0.000140    0.229927
      8          7           0       -2.539812    0.467505   -0.214879
      9          6           0       -3.410153   -0.287497   -0.905775
     10          6           0       -3.098537   -1.604509   -1.178712
     11          6           0       -1.875946   -2.114159   -0.733255
     12          8           0       -2.671200    2.993011    0.569543
     13          8           0        1.289222    1.722046   -0.477095
     14          1           0        3.418508   -0.591399    0.377637
     15          1           0        2.654782   -1.504289    2.841763
     16          1           0        2.015367    0.041070    2.252623
     17          1           0        0.549580   -2.585312    2.489415
     18          1           0       -0.109768   -0.954221    2.441551
     19          1           0        3.011542   -2.317831    0.571408
     20          1           0        0.420922   -2.889938    0.216479
     21          1           0       -0.760443    0.710389    0.789523
     22          1           0       -4.334264    0.192198   -1.217900
     23          1           0       -3.799522   -2.221743   -1.735424
     24          1           0       -1.613203   -3.150388   -0.948226
     25          6           0        1.671558   -1.510018   -1.583962
     26          1           0       -2.745999    1.480174   -0.001260
     27          1           0        1.351368    0.747650   -0.369143
     28          1           0        2.080272    1.991975   -0.971446
     29          1           0       -1.759660    3.129214    0.914439
     30          1           0       -2.950341    3.812370    0.155708
     31          8           0       -0.161168    2.793610    1.443822
     32          1           0        0.293073    3.279577    2.134536
     33          1           0        0.505988    2.552166    0.757658
     34          1           0        2.508375   -0.941485   -2.006235
     35          1           0        0.779589   -1.296270   -2.186568
     36          1           0        1.903068   -2.588331   -1.658611
     37          8           0        3.625398    2.220182   -1.947444
     38          1           0        4.408317    2.633523   -1.573054
     39          1           0        3.572278    2.547849   -2.849596
 ---------------------------------------------------------------------

 SCF Done:  E(RwB97XD) =  -805.032880246     A.U. after    1 cycles

 The electronic state is 1-A.
 Alpha  occ. eigenvalues --  -19.39913 -19.38925 -19.37901 -19.35894 -14.67302
 Alpha  occ. eigenvalues --  -14.57381 -10.50785 -10.50248 -10.47526 -10.46824
 Alpha  occ. eigenvalues --  -10.46634 -10.46023 -10.42827 -10.42706 -10.41155
 Alpha  occ. eigenvalues --  -10.40135  -1.25652  -1.24191  -1.23479  -1.22014
 Alpha  occ. eigenvalues --   -1.19913  -1.16897  -1.07981  -1.04429  -1.00149
 Alpha  occ. eigenvalues --   -0.95655  -0.90319  -0.89424  -0.88362  -0.82239
 Alpha  occ. eigenvalues --   -0.79481  -0.78958  -0.74874  -0.74486  -0.74459
 Alpha  occ. eigenvalues --   -0.74302  -0.72963  -0.72244  -0.70329  -0.69160
 Alpha  occ. eigenvalues --   -0.68542  -0.67683  -0.65177  -0.64382  -0.63689
 Alpha  occ. eigenvalues --   -0.62776  -0.61528  -0.61298  -0.59721  -0.58673
 Alpha  occ. eigenvalues --   -0.58112  -0.56639  -0.55955  -0.55675  -0.55386
 Alpha  occ. eigenvalues --   -0.53461  -0.53214  -0.52806  -0.52459  -0.51924
 Alpha  occ. eigenvalues --   -0.51552  -0.49867  -0.48940  -0.43611
 Alpha virt. eigenvalues --   -0.13529  -0.10726  -0.06200  -0.05420  -0.04886
 Alpha virt. eigenvalues --   -0.04313  -0.03341  -0.03114  -0.02946  -0.02650
 Alpha virt. eigenvalues --   -0.01785  -0.01330  -0.01187  -0.00694  -0.00096

 Mulliken charges:
               1
     1  N   -1.262563
     2  C    0.795000
     3  C    1.216485
     4  C    0.757846
     5  C    1.502393
     6  C    0.824824
     7  C    0.685180
     8  N    0.095924
     9  C    0.744037
    10  C    0.430055
    11  C    1.225212
    12  O   -0.411674
    13  O   -0.436210
    14  H   -0.523095
    15  H   -0.345717
    16  H   -0.259163
    17  H   -0.456479
    18  H   -0.451786
    19  H   -0.459174
    20  H   -0.838073
    21  H   -1.185021
    22  H   -0.667058
    23  H   -0.578447
    24  H   -0.891171
    25  C    1.066245
    26  H    0.116964
    27  H    0.379686
    28  H    0.235172
    29  H    0.220798
    30  H    0.155105
    31  O   -0.517221
    32  H    0.201949
    33  H    0.290554
    34  H   -0.243180
    35  H   -0.176508
    36  H   -0.218533
    37  O   -0.376071
    38  H    0.177182
    39  H    0.176534
 Sum of Mulliken charges =   1.00000

 Dipole moment (field-independent basis, Debye):
    X=             -1.1621    Y=              0.7907    Z=             -2.6440  Tot=              2.9944
 Quadrupole moment (field-independent basis, Debye-Ang):
   XX=            -46.4576   YY=            -61.4150   ZZ=            -82.0711
   XY=             10.7798   XZ=              3.6913   YZ=             -1.7868

  Exact polarizability: 183.316  -4.316 163.147  16.649   7.878 141.337
 Approx polarizability: 185.055  -3.890 182.679  17.212   9.944 157.150

                      1                      2                      3
                      A                      A                      A
 Frequencies --      3.8255                22.4154                29.3973
 Red. masses --      3.9935                 3.9525                 4.4169
 Frc consts  --      0.0000                 0.0012                 0.0022
 IR Inten    --      0.5045                 1.7901                 1.1360

                      4                      5                      6
                      A                      A                      A
 Frequencies --     44.5080                44.6879                62.5318
 Red. masses --      3.5627                 4.5304                 4.6759
 Frc consts  --      0.0042                 0.0053                 0.0108
 IR Inten    --      0.1658                 0.3856                 6.4706

                      7                      8                      9
                      A                      A                      A
 Frequencies --     67.3870                90.3956               101.4399
 Red. masses --      4.2517                 4.8330                 4.2225
 Frc consts  --      0.0114                 0.0233                 0.0256
 IR Inten    --      0.7488                 0.1966                 0.6674

                     10                     11                     12
                      A                      A                      A
 Frequencies --    119.2407               131.5440               146.8597
 Red. masses --      4.2114                 1.0515                 4.1181
 Frc consts  --      0.0353                 0.0107                 0.0523
 IR Inten    --      1.7490                23.1203                 0.6087

                     13                     14                     15
                      A                      A                      A
 Frequencies --    192.6229               202.6068               203.8581
 Red. masses --      3.5468                 1.8740                 2.2823
 Frc consts  --      0.0775                 0.0453                 0.0559
 IR Inten    --      2.6988                40.3900                 8.0755

                     16                     17                     18
                      A                      A                      A
 Frequencies --    224.6291               229.2955               247.9140
 Red. masses --      1.5746                 1.0984                 2.9575
 Frc consts  --      0.0468                 0.0340                 0.1071
 IR Inten    --     87.2715                 8.8569                19.3729

                     19                     20                     21
                      A                      A                      A
 Frequencies --    257.7888               265.5069               267.8934
 Red. masses --      1.2980                 1.4274                 2.1691
 Frc consts  --      0.0508                 0.0593                 0.0917
 IR Inten    --      1.1968               145.9850                69.4458

                     22                     23                     24
                      A                      A                      A
 Frequencies --    274.2954               290.9996               327.1169
 Red. masses --      1.5103                 2.5466                 4.3084
 Frc consts  --      0.0669                 0.1271                 0.2716
 IR Inten    --    110.7805                12.9345                 1.3141

                     25                     26                     27
                      A                      A                      A
 Frequencies --    339.9750               394.9836               400.5185
 Red. masses --      5.2299                 2.8997                 2.8724
 Frc consts  --      0.3562                 0.2665                 0.2715
 IR Inten    --      9.2279                16.1308                 2.9082

                     28                     29                     30
                      A                      A                      A
 Frequencies --    420.1472               500.6931               538.2753
 Red. masses --      3.0500                 1.0684                 1.1454
 Frc consts  --      0.3172                 0.1578                 0.1955
 IR Inten    --      0.5246                24.5216                69.6390

                     31                     32                     33
                      A                      A                      A
 Frequencies --    559.2157               585.7715               633.7159
 Red. masses --      3.2820                 2.8023                 3.6583
 Frc consts  --      0.6047                 0.5665                 0.8656
 IR Inten    --     10.0598                 3.4669                13.8539

                     34                     35                     36
                      A                      A                      A
 Frequencies --    648.2396               650.2016               670.7256
 Red. masses --      3.5318                 3.0341                 1.2017
 Frc consts  --      0.8744                 0.7558                 0.3185
 IR Inten    --      1.7042                 6.9895                28.6335

                     37                     38                     39
                      A                      A                      A
 Frequencies --    712.7926               720.0778               776.9350
 Red. masses --      1.1571                 1.6757                 1.6619
 Frc consts  --      0.3464                 0.5119                 0.5910
 IR Inten    --     93.9866                15.8810                18.7393

                     40                     41                     42
                      A                      A                      A
 Frequencies --    792.9564               835.2703               853.2287
 Red. masses --      1.1867                 1.5931                 1.1861
 Frc consts  --      0.4396                 0.6549                 0.5088
 IR Inten    --     84.7475                33.8986               147.0355

                     43                     44                     45
                      A                      A                      A
 Frequencies --    863.3787               913.1475               919.9732
 Red. masses --      1.7329                 1.3700                 1.3155
 Frc consts  --      0.7611                 0.6731                 0.6560
 IR Inten    --     46.6454                56.5205                25.0046

                     46                     47                     48
                      A                      A                      A
 Frequencies --    935.3303               960.5503               977.5978
 Red. masses --      3.0468                 2.2610                 1.3423
 Frc consts  --      1.5705                 1.2291                 0.7558
 IR Inten    --      4.5025                 5.5607                 6.8384

                     49                     50                     51
                      A                      A                      A
 Frequencies --    985.6025              1005.9395              1032.9100
 Red. masses --      1.6475                 1.7219                 1.4070
 Frc consts  --      0.9429                 1.0266                 0.8845
 IR Inten    --      7.3976                10.0416                 0.8478

                     52                     53                     54
                      A                      A                      A
 Frequencies --   1047.9840              1063.9817              1075.3965
 Red. masses --      3.6982                 2.0865                 1.9514
 Frc consts  --      2.3930                 1.3917                 1.3296
 IR Inten    --      3.0718                13.6662                 6.9288

                     55                     56                     57
                      A                      A                      A
 Frequencies --   1094.4128              1107.9420              1141.8848
 Red. masses --      2.1379                 2.0785                 1.2633
 Frc consts  --      1.5087                 1.5033                 0.9705
 IR Inten    --      4.6297                 6.6038                 4.7882

                     58                     59                     60
                      A                      A                      A
 Frequencies --   1149.6646              1160.8473              1186.9769
 Red. masses --      1.5043                 1.1224                 1.6270
 Frc consts  --      1.1714                 0.8911                 1.3506
 IR Inten    --     10.1680                27.6840                 9.4100

                     61                     62                     63
                      A                      A                      A
 Frequencies --   1214.1098              1226.4841              1240.5338
 Red. masses --      1.3979                 1.4419                 1.8200
 Frc consts  --      1.2141                 1.2779                 1.6502
 IR Inten    --      8.7327                 5.7208                21.0814

                     64                     65                     66
                      A                      A                      A
 Frequencies --   1257.1598              1271.0133              1277.8272
 Red. masses --      1.7339                 1.6402                 1.8777
 Frc consts  --      1.6146                 1.5611                 1.8064
 IR Inten    --      2.5398                14.4489                 9.9441

                     67                     68                     69
                      A                      A                      A
 Frequencies --   1310.2388              1331.3791              1338.5309
 Red. masses --      1.3198                 2.0932                 1.3653
 Frc consts  --      1.3349                 2.1861                 1.4412
 IR Inten    --      2.4823                27.8081                 0.1803

                     70                     71                     72
                      A                      A                      A
 Frequencies --   1355.4212              1378.3602              1382.6783
 Red. masses --      1.4276                 1.8911                 1.6156
 Frc consts  --      1.5453                 2.1169                 1.8198
 IR Inten    --      2.3693                10.7773                 7.0957

                     73                     74                     75
                      A                      A                      A
 Frequencies --   1398.1403              1446.4190              1453.7913
 Red. masses --      1.7024                 1.4558                 1.3940
 Frc consts  --      1.9607                 1.7945                 1.7359
 IR Inten    --      3.4654                13.0308                17.1514

                     76                     77                     78
                      A                      A                      A
 Frequencies --   1483.4677              1485.6559              1490.0559
 Red. masses --      1.0500                 1.0677                 1.0761
 Frc consts  --      1.3615                 1.3884                 1.4077
 IR Inten    --     12.4232                 8.9663                 9.6186

                     79                     80                     81
                      A                      A                      A
 Frequencies --   1505.0637              1517.0499              1525.3523
 Red. masses --      1.1074                 1.3861                 1.5333
 Frc consts  --      1.4780                 1.8795                 2.1019
 IR Inten    --      8.4207                27.6948                23.0835

                     82                     83                     84
                      A                      A                      A
 Frequencies --   1621.8606              1635.4909              1640.0203
 Red. masses --      1.0783                 1.0843                 2.5219
 Frc consts  --      1.6712                 1.7089                 3.9964
 IR Inten    --     73.1797                82.6416                29.5291

                     85                     86                     87
                      A                      A                      A
 Frequencies --   1667.4059              1706.6882              1712.0433
 Red. masses --      1.0815                 2.0757                 1.5247
 Frc consts  --      1.7716                 3.5623                 2.6331
 IR Inten    --     19.9136                 9.5942                19.8431

                     88                     89                     90
                      A                      A                      A
 Frequencies --   1731.7995              2928.7267              2981.2734
 Red. masses --      2.0305                 1.0995                 1.0837
 Frc consts  --      3.5880                 5.5564                 5.6749
 IR Inten    --     55.4189              1710.4817                30.4966

                     91                     92                     93
                      A                      A                      A
 Frequencies --   2988.3215              2994.0456              3090.4984
 Red. masses --      1.0712                 1.0501                 1.0643
 Frc consts  --      5.6360                 5.5464                 5.9890
 IR Inten    --     56.5240                77.7885                14.1233

                     94                     95                     96
                      A                      A                      A
 Frequencies --   3099.3838              3103.0458              3122.5321
 Red. masses --      1.0644                 1.0866                 1.0929
 Frc consts  --      6.0242                 6.1645                 6.2782
 IR Inten    --     19.5463                19.2305                17.7871

                     97                     98                     99
                      A                      A                      A
 Frequencies --   3143.9900              3147.3543              3163.3293
 Red. masses --      1.1046                 1.1035                 1.1046
 Frc consts  --      6.4329                 6.4403                 6.5127
 IR Inten    --      2.9721                11.8421                24.6886

                    100                    101                    102
                      A                      A                      A
 Frequencies --   3211.0092              3236.2921              3246.3378
 Red. masses --      1.0927                 1.0963                 1.0926
 Frc consts  --      6.6380                 6.7653                 6.7844
 IR Inten    --      0.4258                37.5547                 1.2069

                    103                    104                    105
                      A                      A                      A
 Frequencies --   3261.3641              3354.7510              3457.3799
 Red. masses --      1.1008                 1.0652                 1.0659
 Frc consts  --      6.8982                 7.0634                 7.5066
 IR Inten    --      2.1955              1402.9276               695.6147

                    106                    107                    108
                      A                      A                      A
 Frequencies --   3486.8186              3709.2413              3873.1464
 Red. masses --      1.0627                 1.0684                 1.0455
 Frc consts  --      7.6124                 8.6605                 9.2405
 IR Inten    --    463.9437               708.5519                20.4998

                    109                    110                    111
                      A                      A                      A
 Frequencies --   3948.8536              3954.2914              3977.0178
 Red. masses --      1.0681                 1.0677                 1.0824
 Frc consts  --      9.8128                 9.8366                10.0871
 IR Inten    --    120.1521               107.4607               101.1618

 - Thermochemistry -
 -------------------
 Temperature   298.150 Kelvin.  Pressure   1.00000 Atm.
 Atom     1 has atomic number  7 and mass  14.00307

 Molecular mass:   235.16578 amu.
 Principal axes and moments of inertia in atomic units:
                           1         2         3
     Eigenvalues --  3919.020735170.040636698.05668
           X            0.99993  -0.01182  -0.00194
           Y            0.01182   0.99993  -0.00034
           Z            0.00194   0.00032   1.00000
 This molecule is an asymmetric top.
 Rotational symmetry number  1.
 Warning -- assumption of classical behavior for rotation
           may cause significant error
 Rotational temperatures (Kelvin)      0.02210     0.01675     0.01293
 Rotational constants (GHZ):           0.46051     0.34908     0.26944
 Zero-point vibrational energy     900722.5 (Joules/Mol)
                                  215.27785 (Kcal/Mol)
 Warning -- explicit consideration of  32 degrees of freedom as
           vibrations may cause significant error
 Vibrational temperatures:      5.50    32.25    42.30    64.04    64.30
          (Kelvin)             89.97    96.95   130.06   145.95   171.56
                              189.26   211.30   277.14   291.51   293.31
                              323.19   329.91   356.69   370.90   382.01
                              385.44   394.65   418.68   470.65   489.15
                              568.29   576.26   604.50   720.39   774.46
                              804.59   842.79   911.78   932.67   935.50
                              965.02  1025.55  1036.03  1117.84  1140.89
                             1201.77  1227.61  1242.21  1313.82  1323.64
                             1345.73  1382.02  1406.55  1418.06  1447.32
                             1486.13  1507.82  1530.83  1547.26  1574.62
                             1594.08  1642.92  1654.11  1670.20  1707.79
                             1746.83  1764.64  1784.85  1808.77  1828.70
                             1838.51  1885.14  1915.56  1925.85  1950.15
                             1983.15  1989.37  2011.61  2081.07  2091.68
                             2134.38  2137.53  2143.86  2165.45  2182.70
                             2194.64  2333.50  2353.11  2359.62  2399.03
                             2455.54  2463.25  2491.67  4213.78  4289.39
                             4299.53  4307.76  4446.54  4459.32  4464.59
                             4492.63  4523.50  4528.34  4551.33  4619.93
                             4656.30  4670.76  4692.38  4826.74  4974.40
                             5016.75  5336.77  5572.59  5681.52  5689.34
                             5722.04

 Zero-point correction=                           0.343067 (Hartree/Particle)
 Thermal correction to Energy=                    0.365232
 Thermal correction to Enthalpy=                  0.366176
 Thermal correction to Gibbs Free Energy=         0.287960
 Sum of electronic and zero-point Energies=           -804.689813
 Sum of electronic and thermal Energies=              -804.667649
 Sum of electronic and thermal Enthalpies=            -804.666705
 Sum of electronic and thermal Free Energies=         -804.744920

                     E (Thermal)             CV                S
                      KCal/Mol        Cal/Mol-Kelvin    Cal/Mol-Kelvin
 Total                  229.186             78.161            164.619
 Electronic               0.000              0.000              0.000
 Translational            0.889              2.981             42.267
 Rotational               0.889              2.981             33.273
 Vibrational            227.409             72.200             89.079
 Vibration     1          0.593              1.987              9.920
 Vibration     2          0.593              1.985              6.408
 Vibration     3          0.593              1.984              5.870
 Vibration     4          0.595              1.980              5.048
 Vibration     5          0.595              1.980              5.040
 Vibration     6          0.597              1.972              4.376
 Vibration     7          0.598              1.970              4.228
 Vibration     8          0.602              1.956              3.651
 Vibration     9          0.604              1.948              3.426
 Vibration    10          0.609              1.933              3.113
 Vibration    11          0.612              1.922              2.923
 Vibration    12          0.617              1.906              2.713
 Vibration    13          0.635              1.850              2.202
 Vibration    14          0.639              1.836              2.109
 Vibration    15          0.640              1.834              2.098
 Vibration    16          0.649              1.804              1.921
 Vibration    17          0.652              1.796              1.884
 Vibration    18          0.662              1.766              1.745
 Vibration    19          0.667              1.750              1.677
 Vibration    20          0.671              1.736              1.625
 Vibration    21          0.673              1.732              1.610
 Vibration    22          0.677              1.721              1.569
 Vibration    23          0.687              1.690              1.468
 Vibration    24          0.711              1.621              1.274
 Vibration    25          0.720              1.596              1.212
 Vibration    26          0.762              1.481              0.981
 Vibration    27          0.766              1.469              0.961
 Vibration    28          0.783              1.426              0.891
 Vibration    29          0.856              1.248              0.656
 Vibration    30          0.893              1.165              0.569
 Vibration    31          0.915              1.120              0.525
 Vibration    32          0.943              1.062              0.475

                           ! Non-Optimized Parameters !
 Normal termination of Gaussian 16 at Mon Jan 30 19:29:06 2023.
