 Gaussian 16, Revision A.03,
 Gaussian 16:  ES64L-G16RevA.03 25-Dec-2016

 -----------------------------
 # wB97XD/aug-cc-pVDZ opt freq
 -----------------------------

 ----
 blah
 ----
 Symbolic Z-matrix:
 Charge =  1 Multiplicity = 1

 SCF Done:  E(RwB97XD) =  -805.022998092     A.U. after   14 cycles
 SCF Done:  E(RwB97XD) =  -805.022971645     A.U. after   11 cycles
 SCF Done:  E(RwB97XD) =  -805.022998724     A.U. after   12 cycles
 SCF Done:  E(RwB97XD) =  -805.023004371     A.U. after   11 cycles
 SCF Done:  E(RwB97XD) =  -805.023002066     A.U. after   11 cycles
 SCF Done:  E(RwB97XD) =  -805.023001436     A.U. after   12 cycles
 SCF Done:  E(RwB97XD) =  -805.023007185     A.U. after   11 cycles
 SCF Done:  E(RwB97XD) =  -805.023004054     A.U. after   12 cycles
 SCF Done:  E(RwB97XD) =  -805.023012289     A.U. after   12 cycles
 SCF Done:  E(RwB97XD) =  -805.023013439     A.U. after   11 cycles
 SCF Done:  E(RwB97XD) =  -805.023016702     A.U. after    8 cycles
 SCF Done:  E(RwB97XD) =  -805.023016739     A.U. after    8 cycles
 SCF Done:  E(RwB97XD) =  -805.023016799     A.U. after    8 cycles
 SCF Done:  E(RwB97XD) =  -805.023016884     A.U. after    9 cycles
 SCF Done:  E(RwB97XD) =  -805.023016992     A.U. after    9 cycles
 SCF Done:  E(RwB97XD) =  -805.023017073     A.U. after    8 cycles
 SCF Done:  E(RwB97XD) =  -805.023017096     A.U. after    8 cycles
 SCF Done:  E(RwB97XD) =  -805.023017072     A.U. after    7 cycles
 SCF Done:  E(RwB97XD) =  -805.023017028     A.U. after    7 cycles
 Optimization completed.
    -- Stationary point found.
 Normal termination of Gaussian 16 at Mon Jan 30 17:57:23 2023.

 ----------------------------------------------------------------------
 #N Geom=AllCheck Guess=TCheck SCRF=Check GenChk RwB97XD/Aug-CC-pVDZ Fr
 eq
 ----------------------------------------------------------------------

 Structure from the checkpoint file:  "/gscratch/scrubbed/gds001/Gau-8441.chk"
 ----
 blah
 ----
 Charge =  1 Multiplicity = 1

                         Standard orientation:
 ---------------------------------------------------------------------
 Center     Atomic      Atomic             Coordinates (Angstroms)
 Number     Number       Type             X           Y           Z
 ---------------------------------------------------------------------
      1          6           0        1.976221    2.316695   -0.167009
      2          6           0        2.146345    0.946294    0.053265
      3          6           0        1.016711    0.207271    0.375698
      4          7           0       -0.185584    0.796233    0.462134
      5          6           0       -0.369022    2.106575    0.244906
      6          6           0        0.715349    2.903454   -0.076232
      7          6           0        3.495473    0.273751   -0.091612
      8          7           0        3.535298   -1.000252    0.614988
      9          6           0        4.410214   -1.891495   -0.141822
     10          6           0        4.028913   -1.590806   -1.584613
     11          6           0        3.840283   -0.064394   -1.573175
     12          8           0       -2.279602   -0.711421    1.012559
     13          8           0       -4.033057   -1.028727   -0.916554
     14          1           0        4.234911   -2.933331    0.152707
     15          1           0        4.790106   -1.911910   -2.303150
     16          1           0        3.087974   -2.097520   -1.833423
     17          1           0        4.769764    0.443890   -1.854081
     18          1           0        3.061481    0.269328   -2.268260
     19          1           0        5.479869   -1.660480    0.036151
     20          1           0        4.254351    0.976109    0.305359
     21          1           0        1.069443   -0.860874    0.573005
     22          1           0       -1.386934    2.476628    0.339513
     23          1           0        0.572080    3.967681   -0.247579
     24          1           0        2.842210    2.932854   -0.412112
     25          6           0        3.863474   -0.884941    2.023337
     26          1           0       -1.024268    0.201841    0.710660
     27          1           0       -2.663670   -0.928614    1.863881
     28          1           0       -2.975026   -0.866249    0.322840
     29          1           0       -4.914668   -0.594938   -0.894286
     30          1           0       -4.158253   -1.871964   -1.356538
     31          8           0       -6.412427    0.225598   -0.820732
     32          1           0       -7.199260   -0.126677   -0.366541
     33          1           0       -6.740496    0.738315   -1.562375
     34          1           0        3.128365   -0.248457    2.534809
     35          1           0        4.868923   -0.450074    2.186786
     36          1           0        3.834470   -1.876163    2.491147
     37          8           0       -8.622999   -0.778377    0.512841
     38          1           0       -9.217228   -1.463096    0.195141
     39          1           0       -9.121254   -0.279176    1.165128
 ---------------------------------------------------------------------

 SCF Done:  E(RwB97XD) =  -805.023017029     A.U. after    1 cycles

 The electronic state is 1-A.
 Alpha  occ. eigenvalues --  -19.38935 -19.38192 -19.36638 -19.36563 -14.66298
 Alpha  occ. eigenvalues --  -14.54466 -10.49869 -10.49095 -10.46553 -10.45815
 Alpha  occ. eigenvalues --  -10.45723 -10.44476 -10.40923 -10.40917 -10.39943
 Alpha  occ. eigenvalues --  -10.38702  -1.24646  -1.23321  -1.22732  -1.21264
 Alpha  occ. eigenvalues --   -1.20012  -1.14897  -1.06946  -1.03240  -0.98620
 Alpha  occ. eigenvalues --   -0.94253  -0.89349  -0.87973  -0.86734  -0.81203
 Alpha  occ. eigenvalues --   -0.77947  -0.77017  -0.74057  -0.73689  -0.73165
 Alpha  occ. eigenvalues --   -0.72459  -0.72268  -0.72030  -0.69502  -0.68257
 Alpha  occ. eigenvalues --   -0.67769  -0.66405  -0.63304  -0.62974  -0.62412
 Alpha  occ. eigenvalues --   -0.61508  -0.61108  -0.59918  -0.59102  -0.57462
 Alpha  occ. eigenvalues --   -0.56403  -0.55592  -0.55164  -0.54569  -0.53740
 Alpha  occ. eigenvalues --   -0.52098  -0.51817  -0.51793  -0.51702  -0.50543
 Alpha  occ. eigenvalues --   -0.50246  -0.49911  -0.47754  -0.40425
 Alpha virt. eigenvalues --   -0.12890  -0.09382  -0.05856  -0.04815  -0.04123
 Alpha virt. eigenvalues --   -0.03644  -0.03510  -0.02494  -0.02328  -0.02212
 Alpha virt. eigenvalues --   -0.01923  -0.01221  -0.00833  -0.00709  -0.00259

 Mulliken charges:
               1
     1  C    1.123337
     2  C    0.767303
     3  C    0.686549
     4  N    0.006196
     5  C    0.753296
     6  C    0.297519
     7  C    0.947061
     8  N   -0.411960
     9  C    1.171348
    10  C    0.593464
    11  C    0.951800
    12  O   -0.476250
    13  O   -0.403954
    14  H   -0.511642
    15  H   -0.267503
    16  H   -0.377190
    17  H   -0.365566
    18  H   -0.443221
    19  H   -0.455901
    20  H   -0.559168
    21  H   -0.968081
    22  H   -0.662306
    23  H   -0.562798
    24  H   -0.872012
    25  C    0.800560
    26  H    0.104340
    27  H    0.131865
    28  H    0.298671
    29  H    0.271161
    30  H    0.128254
    31  O   -0.359039
    32  H    0.232414
    33  H    0.126032
    34  H   -0.285820
    35  H   -0.172222
    36  H   -0.216133
    37  O   -0.313425
    38  H    0.148687
    39  H    0.144336
 Sum of Mulliken charges =   1.00000

 Dipole moment (field-independent basis, Debye):
    X=             -6.9057    Y=              2.0382    Z=              0.5235  Tot=              7.2192
 Quadrupole moment (field-independent basis, Debye-Ang):
   XX=             43.8853   YY=            -73.4643   ZZ=            -87.4794
   XY=             11.0233   XZ=             -3.6612   YZ=             -0.8281

  Exact polarizability: 190.401 -14.931 167.242  -7.071  -4.040 136.469
 Approx polarizability: 189.116  -4.240 185.673  -7.018  -5.974 148.450

                      1                      2                      3
                      A                      A                      A
 Frequencies --      5.8496                10.2532                13.6146
 Red. masses --      4.8144                 4.8060                 3.2533
 Frc consts  --      0.0001                 0.0003                 0.0004
 IR Inten    --      0.1189                 0.6227                 0.4389

                      4                      5                      6
                      A                      A                      A
 Frequencies --     17.0844                20.2579                29.7901
 Red. masses --      4.8107                 4.1060                 3.3374
 Frc consts  --      0.0008                 0.0010                 0.0017
 IR Inten    --      0.7307                 0.8608                 0.2278

                      7                      8                      9
                      A                      A                      A
 Frequencies --     33.4835                48.2479                58.7322
 Red. masses --      5.1524                 5.2520                 5.6461
 Frc consts  --      0.0034                 0.0072                 0.0115
 IR Inten    --      1.3779                 0.8978                 0.5387

                     10                     11                     12
                      A                      A                      A
 Frequencies --     93.9876                97.1523               119.5775
 Red. masses --      1.1019                 3.3562                 3.4047
 Frc consts  --      0.0057                 0.0187                 0.0287
 IR Inten    --     23.3444                 2.0092                 4.8449

                     13                     14                     15
                      A                      A                      A
 Frequencies --    166.2406               166.2916               177.9387
 Red. masses --      1.5010                 1.9940                 1.9616
 Frc consts  --      0.0244                 0.0325                 0.0366
 IR Inten    --    164.8463                60.1170                22.6971

                     16                     17                     18
                      A                      A                      A
 Frequencies --    195.7074               212.1358               212.7418
 Red. masses --      1.9048                 1.6309                 1.3288
 Frc consts  --      0.0430                 0.0432                 0.0354
 IR Inten    --     67.5694                 1.9601                84.0650

                     19                     20                     21
                      A                      A                      A
 Frequencies --    226.5218               244.2816               246.5945
 Red. masses --      2.7811                 1.1246                 1.1851
 Frc consts  --      0.0841                 0.0395                 0.0425
 IR Inten    --     19.1570                65.8412                 3.3061

                     22                     23                     24
                      A                      A                      A
 Frequencies --    263.2244               276.4610               289.4643
 Red. masses --      1.1106                 2.8859                 5.1235
 Frc consts  --      0.0453                 0.1300                 0.2529
 IR Inten    --    112.9543                 1.4898                26.5595

                     25                     26                     27
                      A                      A                      A
 Frequencies --    297.1650               356.3932               368.2145
 Red. masses --      3.5814                 2.8169                 4.9899
 Frc consts  --      0.1863                 0.2108                 0.3986
 IR Inten    --      2.5444                10.0311                16.1284

                     28                     29                     30
                      A                      A                      A
 Frequencies --    414.9125               417.2211               429.5850
 Red. masses --      1.0592                 2.9244                 3.1762
 Frc consts  --      0.1074                 0.2999                 0.3453
 IR Inten    --     27.4128                 2.4004                 0.8127

                     31                     32                     33
                      A                      A                      A
 Frequencies --    477.6770               530.1623               577.7459
 Red. masses --      1.0520                 2.9310                 1.4999
 Frc consts  --      0.1414                 0.4854                 0.2950
 IR Inten    --     21.5507                 1.1185                14.2500

                     34                     35                     36
                      A                      A                      A
 Frequencies --    588.3896               619.4738               643.1402
 Red. masses --      1.7962                 3.9661                 5.1445
 Frc consts  --      0.3664                 0.8967                 1.2537
 IR Inten    --      8.7721                12.9995                18.1482

                     37                     38                     39
                      A                      A                      A
 Frequencies --    659.5773               714.0934               727.2099
 Red. masses --      3.4434                 2.0187                 1.0522
 Frc consts  --      0.8826                 0.6065                 0.3279
 IR Inten    --      2.5819                30.2360               123.4481

                     40                     41                     42
                      A                      A                      A
 Frequencies --    779.6702               836.5238               848.8369
 Red. masses --      2.5743                 1.4752                 1.0601
 Frc consts  --      0.9220                 0.6082                 0.4500
 IR Inten    --      6.9351                30.5241               126.1201

                     43                     44                     45
                      A                      A                      A
 Frequencies --    872.0075               903.0087               937.9663
 Red. masses --      2.0603                 1.8235                 3.1338
 Frc consts  --      0.9231                 0.8761                 1.6244
 IR Inten    --      4.6873                 7.8712                 6.5941

                     46                     47                     48
                      A                      A                      A
 Frequencies --    946.2909               963.1136               974.5341
 Red. masses --      1.0473                 1.9946                 1.9949
 Frc consts  --      0.5525                 1.0901                 1.1163
 IR Inten    --     57.8690                 3.5110                 3.9318

                     49                     50                     51
                      A                      A                      A
 Frequencies --    980.4518               993.5348              1033.2381
 Red. masses --      1.3045                 1.6084                 1.3816
 Frc consts  --      0.7389                 0.9354                 0.8690
 IR Inten    --      4.9225                 1.4892                 0.2751

                     52                     53                     54
                      A                      A                      A
 Frequencies --   1042.0456              1062.7976              1078.1958
 Red. masses --      3.6610                 2.0917                 1.7526
 Frc consts  --      2.3422                 1.3920                 1.2004
 IR Inten    --      3.5361                 6.0714                17.5538

                     55                     56                     57
                      A                      A                      A
 Frequencies --   1085.3664              1106.1824              1136.7840
 Red. masses --      2.2010                 1.8388                 1.2639
 Frc consts  --      1.5276                 1.3257                 0.9623
 IR Inten    --      3.0096                 8.4596                 4.9270

                     58                     59                     60
                      A                      A                      A
 Frequencies --   1141.7696              1180.9305              1206.8140
 Red. masses --      1.4984                 1.4233                 1.1710
 Frc consts  --      1.1509                 1.1695                 1.0048
 IR Inten    --      4.4827                 6.4825                 9.3382

                     61                     62                     63
                      A                      A                      A
 Frequencies --   1212.9049              1232.7839              1250.8492
 Red. masses --      1.6331                 1.9903                 1.0862
 Frc consts  --      1.4155                 1.7822                 1.0013
 IR Inten    --      4.0603                18.8998                29.7055

                     64                     65                     66
                      A                      A                      A
 Frequencies --   1256.6107              1271.0953              1283.8976
 Red. masses --      1.7907                 1.5682                 1.9145
 Frc consts  --      1.6660                 1.4928                 1.8594
 IR Inten    --     11.4914                 8.4780                30.4255

                     67                     68                     69
                      A                      A                      A
 Frequencies --   1300.6694              1307.4097              1339.5715
 Red. masses --      1.4566                 1.3594                 1.6137
 Frc consts  --      1.4518                 1.3690                 1.7061
 IR Inten    --     10.0758                 1.1563                 8.9596

                     70                     71                     72
                      A                      A                      A
 Frequencies --   1347.1538              1363.4376              1375.2106
 Red. masses --      1.4510                 2.8089                 1.6639
 Frc consts  --      1.5515                 3.0765                 1.8540
 IR Inten    --      0.6888                17.5702                15.1848

                     73                     74                     75
                      A                      A                      A
 Frequencies --   1392.0045              1432.4275              1453.8571
 Red. masses --      1.7186                 1.7888                 1.2188
 Frc consts  --      1.9621                 2.1626                 1.5178
 IR Inten    --     10.8391                42.1303                 5.5007

                     76                     77                     78
                      A                      A                      A
 Frequencies --   1478.4450              1483.3921              1491.3574
 Red. masses --      1.0471                 1.0856                 1.0697
 Frc consts  --      1.3485                 1.4075                 1.4018
 IR Inten    --     10.7577                 8.1261                 8.5715

                     79                     80                     81
                      A                      A                      A
 Frequencies --   1499.7470              1510.9192              1519.4027
 Red. masses --      1.0913                 2.1974                 1.1439
 Frc consts  --      1.4461                 2.9555                 1.5560
 IR Inten    --      7.6041                27.4641                 0.8878

                     82                     83                     84
                      A                      A                      A
 Frequencies --   1618.7860              1626.7279              1636.9939
 Red. masses --      1.6379                 1.1813                 1.1612
 Frc consts  --      2.5289                 1.8418                 1.8334
 IR Inten    --    112.4491               102.0957                 9.8514

                     85                     86                     87
                      A                      A                      A
 Frequencies --   1658.4092              1685.7726              1696.5285
 Red. masses --      1.1065                 1.1149                 4.9873
 Frc consts  --      1.7931                 1.8667                 8.4573
 IR Inten    --     11.3778                 4.4496                11.6496

                     88                     89                     90
                      A                      A                      A
 Frequencies --   1718.0610              2858.5710              2961.6411
 Red. masses --      2.5627                 1.1056                 1.0784
 Frc consts  --      4.4569                 5.3228                 5.5729
 IR Inten    --      6.8724              3048.2880                33.2408

                     91                     92                     93
                      A                      A                      A
 Frequencies --   2965.6955              2971.0958              3085.9275
 Red. masses --      1.0750                 1.0560                 1.0634
 Frc consts  --      5.5707                 5.4920                 5.9665
 IR Inten    --     36.0842                88.1735                16.1240

                     94                     95                     96
                      A                      A                      A
 Frequencies --   3086.9029              3092.2787              3120.0817
 Red. masses --      1.0821                 1.0636                 1.0915
 Frc consts  --      6.0752                 5.9923                 6.2605
 IR Inten    --     31.0655                18.9062                25.3047

                     97                     98                     99
                      A                      A                      A
 Frequencies --   3139.4870              3141.0848              3156.5324
 Red. masses --      1.1048                 1.1021                 1.1053
 Frc consts  --      6.4156                 6.4064                 6.4889
 IR Inten    --      6.9941                19.3087                25.8889

                    100                    101                    102
                      A                      A                      A
 Frequencies --   3208.4922              3244.5394              3250.6043
 Red. masses --      1.0922                 1.0927                 1.0952
 Frc consts  --      6.6248                 6.7771                 6.8183
 IR Inten    --      0.5504                 1.2646                 9.5336

                    103                    104                    105
                      A                      A                      A
 Frequencies --   3259.5558              3314.9431              3492.5814
 Red. masses --      1.1005                 1.0653                 1.0625
 Frc consts  --      6.8889                 6.8970                 7.6358
 IR Inten    --      1.2130              1600.9842               904.3229

                    106                    107                    108
                      A                      A                      A
 Frequencies --   3650.8665              3879.7372              3951.6882
 Red. masses --      1.0594                 1.0452                 1.0676
 Frc consts  --      8.3198                 9.2690                 9.8224
 IR Inten    --    549.2884                24.6558                90.5498

                    109                    110                    111
                      A                      A                      A
 Frequencies --   3954.8685              3955.2094              3986.9279
 Red. masses --      1.0695                 1.0671                 1.0830
 Frc consts  --      9.8563                 9.8353                10.1426
 IR Inten    --    108.3417                78.3040               111.3721

 - Thermochemistry -
 -------------------
 Temperature   298.150 Kelvin.  Pressure   1.00000 Atm.
 Atom     1 has atomic number  6 and mass  12.00000

 Molecular mass:   235.16578 amu.
 Principal axes and moments of inertia in atomic units:
                           1         2         3
     Eigenvalues --  2314.65219********************
           X            1.00000  -0.00178   0.00022
           Y            0.00178   0.99996  -0.00899
           Z           -0.00020   0.00899   0.99996
 This molecule is an asymmetric top.
 Rotational symmetry number  1.
 Warning -- assumption of classical behavior for rotation
           may cause significant error
 Rotational temperatures (Kelvin)      0.03742     0.00585     0.00555
 Rotational constants (GHZ):           0.77970     0.12181     0.11555
 Zero-point vibrational energy     893194.1 (Joules/Mol)
                                  213.47852 (Kcal/Mol)
 Warning -- explicit consideration of  35 degrees of freedom as
           vibrations may cause significant error
 Vibrational temperatures:      8.42    14.75    19.59    24.58    29.15
          (Kelvin)             42.86    48.18    69.42    84.50   135.23
                              139.78   172.05   239.18   239.26   256.01
                              281.58   305.22   306.09   325.91   351.47
                              354.79   378.72   397.77   416.47   427.55
                              512.77   529.78   596.97   600.29   618.08
                              687.27   762.79   831.25   846.56   891.28
                              925.34   948.98  1027.42  1046.29  1121.77
                             1203.57  1221.29  1254.62  1299.23  1349.52
                             1361.50  1385.71  1402.14  1410.65  1429.47
                             1486.60  1499.27  1529.13  1551.28  1561.60
                             1591.55  1635.58  1642.75  1699.10  1736.34
                             1745.10  1773.70  1799.69  1807.98  1828.82
                             1847.24  1871.37  1881.07  1927.34  1938.25
                             1961.68  1978.62  2002.78  2060.94  2091.78
                             2127.15  2134.27  2145.73  2157.80  2173.88
                             2186.08  2329.07  2340.50  2355.27  2386.08
                             2425.45  2440.93  2471.91  4112.85  4261.14
                             4266.97  4274.74  4439.96  4441.36  4449.10
                             4489.10  4517.02  4519.32  4541.55  4616.30
                             4668.17  4676.89  4689.77  4769.46  5025.05
                             5252.78  5582.08  5685.60  5690.17  5690.66
                             5736.30

 Zero-point correction=                           0.340200 (Hartree/Particle)
 Thermal correction to Energy=                    0.363964
 Thermal correction to Enthalpy=                  0.364908
 Thermal correction to Gibbs Free Energy=         0.278192
 Sum of electronic and zero-point Energies=           -804.682817
 Sum of electronic and thermal Energies=              -804.659053
 Sum of electronic and thermal Enthalpies=            -804.658109
 Sum of electronic and thermal Free Energies=         -804.744825

                     E (Thermal)             CV                S
                      KCal/Mol        Cal/Mol-Kelvin    Cal/Mol-Kelvin
 Total                  228.391             80.391            182.510
 Electronic               0.000              0.000              0.000
 Translational            0.889              2.981             42.267
 Rotational               0.889              2.981             34.637
 Vibrational            226.613             74.430            105.606
 Vibration     1          0.593              1.987              9.076
 Vibration     2          0.593              1.987              7.961
 Vibration     3          0.593              1.986              7.398
 Vibration     4          0.593              1.986              6.947
 Vibration     5          0.593              1.986              6.609
 Vibration     6          0.594              1.984              5.843
 Vibration     7          0.594              1.983              5.612
 Vibration     8          0.595              1.978              4.888
 Vibration     9          0.596              1.974              4.499
 Vibration    10          0.603              1.953              3.575
 Vibration    11          0.603              1.951              3.511
 Vibration    12          0.609              1.933              3.107
 Vibration    13          0.624              1.884              2.478
 Vibration    14          0.624              1.884              2.477
 Vibration    15          0.628              1.869              2.350
 Vibration    16          0.636              1.846              2.173
 Vibration    17          0.643              1.822              2.025
 Vibration    18          0.644              1.821              2.020
 Vibration    19          0.650              1.801              1.906
 Vibration    20          0.660              1.772              1.771
 Vibration    21          0.661              1.768              1.755
 Vibration    22          0.670              1.740              1.640
 Vibration    23          0.678              1.717              1.555
 Vibration    24          0.686              1.693              1.477
 Vibration    25          0.691              1.679              1.433
 Vibration    26          0.732              1.562              1.138
 Vibration    27          0.741              1.538              1.087
 Vibration    28          0.778              1.438              0.909
 Vibration    29          0.780              1.433              0.901
 Vibration    30          0.791              1.406              0.860
 Vibration    31          0.834              1.300              0.716
 Vibration    32          0.885              1.183              0.587
 Vibration    33          0.934              1.079              0.490
 Vibration    34          0.946              1.057              0.470
 Vibration    35          0.979              0.991              0.417

                           ! Non-Optimized Parameters !
 Normal termination of Gaussian 16 at Mon Jan 30 18:45:06 2023.
