 Gaussian 16, Revision A.03,
 Gaussian 16:  ES64L-G16RevA.03 25-Dec-2016

 -----------------------------
 # wB97XD/aug-cc-pVDZ opt freq
 -----------------------------

 ----
 blah
 ----
 Symbolic Z-matrix:
 Charge =  1 Multiplicity = 1

 SCF Done:  E(RwB97XD) =  -805.017862706     A.U. after   14 cycles
 SCF Done:  E(RwB97XD) =  -805.018814258     A.U. after   15 cycles
 SCF Done:  E(RwB97XD) =  -805.018126307     A.U. after   15 cycles
 SCF Done:  E(RwB97XD) =  -805.019987415     A.U. after   12 cycles
 SCF Done:  E(RwB97XD) =  -805.021131241     A.U. after   15 cycles
 SCF Done:  E(RwB97XD) =  -805.021164106     A.U. after   15 cycles
 SCF Done:  E(RwB97XD) =  -805.021868264     A.U. after   15 cycles
 SCF Done:  E(RwB97XD) =  -805.022436929     A.U. after   15 cycles
 SCF Done:  E(RwB97XD) =  -805.021968807     A.U. after   15 cycles
 SCF Done:  E(RwB97XD) =  -805.022633861     A.U. after   15 cycles
 SCF Done:  E(RwB97XD) =  -805.022941877     A.U. after    9 cycles
 SCF Done:  E(RwB97XD) =  -805.022942497     A.U. after    9 cycles
 SCF Done:  E(RwB97XD) =  -805.022943565     A.U. after   11 cycles
 SCF Done:  E(RwB97XD) =  -805.022943980     A.U. after    9 cycles
 SCF Done:  E(RwB97XD) =  -805.022944134     A.U. after    9 cycles
 SCF Done:  E(RwB97XD) =  -805.022944368     A.U. after    8 cycles
 SCF Done:  E(RwB97XD) =  -805.022944389     A.U. after    8 cycles
 SCF Done:  E(RwB97XD) =  -805.022944413     A.U. after    8 cycles
 SCF Done:  E(RwB97XD) =  -805.022944426     A.U. after    8 cycles
 Optimization completed.
    -- Stationary point found.
 Normal termination of Gaussian 16 at Fri Jan 27 15:30:45 2023.

 ----------------------------------------------------------------------
 #N Geom=AllCheck Guess=TCheck SCRF=Check GenChk RwB97XD/Aug-CC-pVDZ Fr
 eq
 ----------------------------------------------------------------------

 Structure from the checkpoint file:  "/gscratch/scrubbed/gds001/Gau-26836.chk"
 ----
 blah
 ----
 Charge =  1 Multiplicity = 1

                         Standard orientation:
 ---------------------------------------------------------------------
 Center     Atomic      Atomic             Coordinates (Angstroms)
 Number     Number       Type             X           Y           Z
 ---------------------------------------------------------------------
      1          6           0        2.906635    1.968231   -0.305499
      2          6           0        2.321348    0.734357   -0.005077
      3          6           0        0.968149    0.728407    0.303487
      4          7           0        0.260495    1.867871    0.301926
      5          6           0        0.802541    3.058505    0.006909
      6          6           0        2.148050    3.137405   -0.305055
      7          6           0        3.108802   -0.557785   -0.052084
      8          7           0        2.473617   -1.600268    0.743901
      9          6           0        2.770936   -2.876066    0.098896
     10          6           0        2.603404   -2.552777   -1.379425
     11          6           0        3.212832   -1.144268   -1.492078
     12          8           0       -2.324822    1.903982    0.823299
     13          8           0       -3.946817    0.987620   -1.028992
     14          1           0        2.085590   -3.651970    0.461105
     15          1           0        3.101513   -3.276363   -2.033007
     16          1           0        1.537105   -2.536302   -1.637392
     17          1           0        4.266732   -1.196789   -1.787967
     18          1           0        2.696243   -0.521815   -2.231461
     19          1           0        3.807228   -3.207894    0.311841
     20          1           0        4.127378   -0.334013    0.321696
     21          1           0        0.444617   -0.189477    0.560414
     22          1           0        0.133918    3.915328    0.035125
     23          1           0        2.593025    4.101697   -0.538833
     24          1           0        3.970410    2.014716   -0.541814
     25          6           0        2.804791   -1.548362    2.155471
     26          1           0       -0.769044    1.833664    0.542108
     27          1           0       -2.762403    1.913229    1.676608
     28          1           0       -2.978923    1.564972    0.159062
     29          1           0       -4.504382    1.577410   -1.540545
     30          1           0       -4.463049    0.160559   -0.904652
     31          8           0       -5.310321   -1.301891   -0.647480
     32          1           0       -5.288643   -2.013271   -1.290864
     33          1           0       -6.185206   -1.349421   -0.221229
     34          1           0        2.501984   -0.582584    2.582748
     35          1           0        3.889127   -1.681288    2.338049
     36          1           0        2.264044   -2.338093    2.690363
     37          8           0       -7.779232   -1.412375    0.604562
     38          1           0       -8.628800   -1.194639    0.212543
     39          1           0       -7.972641   -1.985450    1.350939
 ---------------------------------------------------------------------

 SCF Done:  E(RwB97XD) =  -805.022944426     A.U. after    1 cycles

 The electronic state is 1-A.
 Alpha  occ. eigenvalues --  -19.38942 -19.38228 -19.36625 -19.36556 -14.66331
 Alpha  occ. eigenvalues --  -14.54590 -10.49863 -10.49169 -10.46580 -10.45825
 Alpha  occ. eigenvalues --  -10.45780 -10.44546 -10.41040 -10.41033 -10.40017
 Alpha  occ. eigenvalues --  -10.38807  -1.24679  -1.23326  -1.22752  -1.21262
 Alpha  occ. eigenvalues --   -1.20006  -1.15013  -1.06984  -1.03277  -0.98700
 Alpha  occ. eigenvalues --   -0.94328  -0.89387  -0.88025  -0.86817  -0.81241
 Alpha  occ. eigenvalues --   -0.78031  -0.77125  -0.74033  -0.73699  -0.73218
 Alpha  occ. eigenvalues --   -0.72468  -0.72243  -0.72012  -0.69566  -0.68317
 Alpha  occ. eigenvalues --   -0.67796  -0.66452  -0.63301  -0.63092  -0.62473
 Alpha  occ. eigenvalues --   -0.61626  -0.61127  -0.60005  -0.59122  -0.57507
 Alpha  occ. eigenvalues --   -0.56462  -0.55664  -0.55163  -0.54674  -0.53827
 Alpha  occ. eigenvalues --   -0.52134  -0.51926  -0.51804  -0.51750  -0.50610
 Alpha  occ. eigenvalues --   -0.50239  -0.49880  -0.47799  -0.40573
 Alpha virt. eigenvalues --   -0.12912  -0.09430  -0.05834  -0.04894  -0.04040
 Alpha virt. eigenvalues --   -0.03750  -0.03529  -0.02676  -0.02258  -0.02148
 Alpha virt. eigenvalues --   -0.02084  -0.01348  -0.00909  -0.00363  -0.00319

 Mulliken charges:
               1
     1  C    1.175612
     2  C    0.748139
     3  C    0.712128
     4  N   -0.024330
     5  C    0.769419
     6  C    0.248403
     7  C    0.934250
     8  N   -0.407367
     9  C    1.200074
    10  C    0.580720
    11  C    0.967746
    12  O   -0.475082
    13  O   -0.406817
    14  H   -0.514095
    15  H   -0.270164
    16  H   -0.380005
    17  H   -0.365146
    18  H   -0.439501
    19  H   -0.450876
    20  H   -0.574080
    21  H   -0.993280
    22  H   -0.655226
    23  H   -0.559214
    24  H   -0.871317
    25  C    0.806513
    26  H    0.103957
    27  H    0.133746
    28  H    0.301326
    29  H    0.127506
    30  H    0.276954
    31  O   -0.360463
    32  H    0.125869
    33  H    0.234368
    34  H   -0.288831
    35  H   -0.173515
    36  H   -0.215963
    37  O   -0.314408
    38  H    0.148551
    39  H    0.144399
 Sum of Mulliken charges =   1.00000

 Dipole moment (field-independent basis, Debye):
    X=             -4.7727    Y=              2.3402    Z=              0.3516  Tot=              5.3272
 Quadrupole moment (field-independent basis, Debye-Ang):
   XX=             21.5933   YY=            -62.6037   ZZ=            -87.6111
   XY=             18.1587   XZ=             -4.8711   YZ=             -1.3821

  Exact polarizability: 171.006  -8.373 185.917  -7.246  -2.965 136.199
 Approx polarizability: 184.579  -2.165 189.867  -8.595  -5.116 148.805

                      1                      2                      3
                      A                      A                      A
 Frequencies --      6.5694                 8.4659                13.9947
 Red. masses --      4.4214                 5.0271                 4.2927
 Frc consts  --      0.0001                 0.0002                 0.0005
 IR Inten    --      0.5003                 0.5676                 1.1102

                      4                      5                      6
                      A                      A                      A
 Frequencies --     18.8304                21.9602                27.6051
 Red. masses --      3.2218                 3.1621                 4.9167
 Frc consts  --      0.0007                 0.0009                 0.0022
 IR Inten    --      0.5008                 0.1388                 1.0094

                      7                      8                      9
                      A                      A                      A
 Frequencies --     37.5970                47.9094                57.9617
 Red. masses --      4.7361                 5.0768                 5.5976
 Frc consts  --      0.0039                 0.0069                 0.0111
 IR Inten    --      1.8021                 0.3933                 0.6672

                     10                     11                     12
                      A                      A                      A
 Frequencies --     91.9894                96.7233               120.6551
 Red. masses --      2.3202                 1.2694                 3.6559
 Frc consts  --      0.0116                 0.0070                 0.0314
 IR Inten    --      3.3542                27.5886                 0.9023

                     13                     14                     15
                      A                      A                      A
 Frequencies --    166.3309               166.9497               182.9374
 Red. masses --      3.5181                 1.1405                 3.4554
 Frc consts  --      0.0573                 0.0187                 0.0681
 IR Inten    --      3.8010               208.6664                17.4177

                     16                     17                     18
                      A                      A                      A
 Frequencies --    204.1699               208.8263               213.4873
 Red. masses --      1.2941                 1.6463                 1.4232
 Frc consts  --      0.0318                 0.0423                 0.0382
 IR Inten    --     32.2532                 1.3676               117.8221

                     19                     20                     21
                      A                      A                      A
 Frequencies --    225.6834               243.9365               246.1133
 Red. masses --      2.7149                 1.1032                 1.1756
 Frc consts  --      0.0815                 0.0387                 0.0420
 IR Inten    --     17.6138                69.8647                 0.1349

                     22                     23                     24
                      A                      A                      A
 Frequencies --    264.9418               276.0228               288.9365
 Red. masses --      1.1171                 2.8656                 5.0851
 Frc consts  --      0.0462                 0.1286                 0.2501
 IR Inten    --    118.2912                 9.7757                25.7420

                     25                     26                     27
                      A                      A                      A
 Frequencies --    297.5713               356.6478               369.0221
 Red. masses --      3.6635                 2.8423                 4.9154
 Frc consts  --      0.1911                 0.2130                 0.3944
 IR Inten    --      4.5827                11.5430                17.2663

                     28                     29                     30
                      A                      A                      A
 Frequencies --    412.1167               417.0403               429.3694
 Red. masses --      1.0480                 3.0059                 3.1675
 Frc consts  --      0.1049                 0.3080                 0.3441
 IR Inten    --     26.8550                 1.6530                 1.0906

                     31                     32                     33
                      A                      A                      A
 Frequencies --    479.4637               531.6504               579.6467
 Red. masses --      1.0537                 3.0103                 1.5850
 Frc consts  --      0.1427                 0.5013                 0.3138
 IR Inten    --     20.0835                 1.4190                10.8753

                     34                     35                     36
                      A                      A                      A
 Frequencies --    590.4660               622.6873               643.6500
 Red. masses --      1.6905                 3.9898                 5.0295
 Frc consts  --      0.3473                 0.9115                 1.2276
 IR Inten    --      9.6827                14.3208                17.1250

                     37                     38                     39
                      A                      A                      A
 Frequencies --    658.2876               714.1762               726.5829
 Red. masses --      3.4119                 2.0255                 1.0521
 Frc consts  --      0.8711                 0.6087                 0.3272
 IR Inten    --      3.1191                30.6494               125.6867

                     40                     41                     42
                      A                      A                      A
 Frequencies --    778.7825               837.0016               848.9738
 Red. masses --      2.5245                 1.4921                 1.0533
 Frc consts  --      0.9021                 0.6159                 0.4473
 IR Inten    --      6.5535                29.3967               129.1696

                     43                     44                     45
                      A                      A                      A
 Frequencies --    870.5619               904.7097               937.7043
 Red. masses --      2.0532                 1.8132                 3.1606
 Frc consts  --      0.9168                 0.8744                 1.6374
 IR Inten    --      4.8742                 8.2631                 6.2187

                     46                     47                     48
                      A                      A                      A
 Frequencies --    944.2178               963.9706               974.9211
 Red. masses --      1.0472                 2.0090                 1.9691
 Frc consts  --      0.5501                 1.0999                 1.1027
 IR Inten    --     59.5742                 3.7301                 3.6903

                     49                     50                     51
                      A                      A                      A
 Frequencies --    981.4668               994.8520              1032.6567
 Red. masses --      1.3046                 1.6283                 1.3832
 Frc consts  --      0.7404                 0.9495                 0.8691
 IR Inten    --      4.8441                 1.0501                 0.2124

                     52                     53                     54
                      A                      A                      A
 Frequencies --   1043.0943              1063.4978              1078.4974
 Red. masses --      3.6724                 2.1002                 1.7526
 Frc consts  --      2.3542                 1.3995                 1.2010
 IR Inten    --      3.2058                 6.0086                17.0542

                     55                     56                     57
                      A                      A                      A
 Frequencies --   1085.2007              1106.1001              1136.6855
 Red. masses --      2.1939                 1.8636                 1.2640
 Frc consts  --      1.5222                 1.3434                 0.9622
 IR Inten    --      2.6458                 8.8698                 4.8233

                     58                     59                     60
                      A                      A                      A
 Frequencies --   1141.9672              1181.6770              1206.9433
 Red. masses --      1.5027                 1.4233                 1.1697
 Frc consts  --      1.1546                 1.1710                 1.0039
 IR Inten    --      5.1043                 6.6593                 8.0766

                     61                     62                     63
                      A                      A                      A
 Frequencies --   1214.3858              1233.3208              1255.1523
 Red. masses --      1.6424                 1.9798                 1.1549
 Frc consts  --      1.4271                 1.7743                 1.0720
 IR Inten    --      3.9761                17.2613                41.9563

                     64                     65                     66
                      A                      A                      A
 Frequencies --   1256.2678              1272.4230              1283.6187
 Red. masses --      1.6149                 1.5592                 1.9901
 Frc consts  --      1.5016                 1.4873                 1.9319
 IR Inten    --      0.7835                 7.6124                30.8274

                     67                     68                     69
                      A                      A                      A
 Frequencies --   1300.8379              1307.7038              1339.4006
 Red. masses --      1.4654                 1.3444                 1.5589
 Frc consts  --      1.4610                 1.3545                 1.6478
 IR Inten    --      9.5400                 0.7148                 8.0973

                     70                     71                     72
                      A                      A                      A
 Frequencies --   1347.7539              1363.6383              1375.0914
 Red. masses --      1.4666                 2.7628                 1.6744
 Frc consts  --      1.5696                 3.0269                 1.8654
 IR Inten    --      0.8827                18.7734                13.7292

                     73                     74                     75
                      A                      A                      A
 Frequencies --   1391.1820              1431.4643              1453.6982
 Red. masses --      1.7153                 1.7738                 1.2159
 Frc consts  --      1.9559                 2.1415                 1.5139
 IR Inten    --     10.0926                41.0763                 5.0402

                     76                     77                     78
                      A                      A                      A
 Frequencies --   1477.6671              1482.7540              1490.7956
 Red. masses --      1.0474                 1.0852                 1.0693
 Frc consts  --      1.3475                 1.4057                 1.4002
 IR Inten    --     10.9304                 8.0024                 8.6407

                     79                     80                     81
                      A                      A                      A
 Frequencies --   1499.9513              1511.0058              1520.2148
 Red. masses --      1.0919                 2.2088                 1.1414
 Frc consts  --      1.4475                 2.9712                 1.5542
 IR Inten    --      7.5768                28.2360                 0.9342

                     82                     83                     84
                      A                      A                      A
 Frequencies --   1617.1976              1626.9115              1638.8748
 Red. masses --      1.7173                 1.1326                 1.1657
 Frc consts  --      2.6463                 1.7663                 1.8446
 IR Inten    --     67.0753               143.7755                18.8263

                     85                     86                     87
                      A                      A                      A
 Frequencies --   1659.3723              1685.5093              1698.5483
 Red. masses --      1.1316                 1.2537                 3.4716
 Frc consts  --      1.8358                 2.0986                 5.9011
 IR Inten    --      9.5856                 9.3627                 4.8603

                     88                     89                     90
                      A                      A                      A
 Frequencies --   1718.3609              2856.1896              2959.7389
 Red. masses --      2.4207                 1.1057                 1.0800
 Frc consts  --      4.2113                 5.3145                 5.5742
 IR Inten    --      9.8175              3034.4998                28.5681

                     91                     92                     93
                      A                      A                      A
 Frequencies --   2964.3313              2971.2776              3087.0380
 Red. masses --      1.0742                 1.0552                 1.0785
 Frc consts  --      5.5612                 5.4887                 6.0556
 IR Inten    --     46.7209                81.8610                26.7995

                     94                     95                     96
                      A                      A                      A
 Frequencies --   3087.1498              3094.3148              3119.3897
 Red. masses --      1.0668                 1.0635                 1.0913
 Frc consts  --      5.9901                 5.9995                 6.2563
 IR Inten    --     19.0348                19.9402                25.6569

                     97                     98                     99
                      A                      A                      A
 Frequencies --   3140.1244              3141.0051              3157.9951
 Red. masses --      1.1024                 1.1049                 1.1055
 Frc consts  --      6.4044                 6.4224                 6.4955
 IR Inten    --     18.9367                 6.7113                25.8345

                    100                    101                    102
                      A                      A                      A
 Frequencies --   3207.9436              3243.7528              3247.7028
 Red. masses --      1.0923                 1.0927                 1.0952
 Frc consts  --      6.6229                 6.7740                 6.8061
 IR Inten    --      0.5260                 1.4886                 8.0798

                    103                    104                    105
                      A                      A                      A
 Frequencies --   3258.7445              3310.2311              3492.0173
 Red. masses --      1.1005                 1.0653                 1.0625
 Frc consts  --      6.8856                 6.8778                 7.6334
 IR Inten    --      1.9267              1528.6536               864.5370

                    106                    107                    108
                      A                      A                      A
 Frequencies --   3652.3053              3880.2977              3950.9691
 Red. masses --      1.0594                 1.0451                 1.0675
 Frc consts  --      8.3259                 9.2716                 9.8183
 IR Inten    --    553.6487                24.5355                94.9204

                    109                    110                    111
                      A                      A                      A
 Frequencies --   3953.5626              3953.9501              3987.5303
 Red. masses --      1.0670                 1.0696                 1.0830
 Frc consts  --      9.8266                 9.8519                10.1458
 IR Inten    --     97.0521                84.7424               111.2905

 - Thermochemistry -
 -------------------
 Temperature   298.150 Kelvin.  Pressure   1.00000 Atm.
 Atom     1 has atomic number  6 and mass  12.00000

 Molecular mass:   235.16578 amu.
 Principal axes and moments of inertia in atomic units:
                           1         2         3
     Eigenvalues --  3742.43961********************
           X            0.99999  -0.00453   0.00015
           Y            0.00454   0.99999  -0.00287
           Z           -0.00014   0.00287   1.00000
 This molecule is an asymmetric top.
 Rotational symmetry number  1.
 Warning -- assumption of classical behavior for rotation
           may cause significant error
 Rotational temperatures (Kelvin)      0.02314     0.00763     0.00635
 Rotational constants (GHZ):           0.48224     0.15890     0.13229
 Zero-point vibrational energy     893318.1 (Joules/Mol)
                                  213.50815 (Kcal/Mol)
 Warning -- explicit consideration of  34 degrees of freedom as
           vibrations may cause significant error
 Vibrational temperatures:      9.45    12.18    20.14    27.09    31.60
          (Kelvin)             39.72    54.09    68.93    83.39   132.35
                              139.16   173.60   239.31   240.20   263.21
                              293.75   300.45   307.16   324.71   350.97
                              354.10   381.19   397.14   415.72   428.14
                              513.14   530.94   592.94   600.03   617.77
                              689.84   764.93   833.98   849.55   895.91
                              926.07   947.13  1027.54  1045.39  1120.49
                             1204.26  1221.48  1252.54  1301.68  1349.15
                             1358.52  1386.94  1402.69  1412.11  1431.37
                             1485.76  1500.78  1530.14  1551.72  1561.36
                             1591.43  1635.44  1643.04  1700.17  1736.52
                             1747.23  1774.47  1805.88  1807.49  1830.73
                             1846.84  1871.62  1881.49  1927.10  1939.12
                             1961.97  1978.45  2001.60  2059.56  2091.55
                             2126.03  2133.35  2144.92  2158.10  2174.00
                             2187.25  2326.79  2340.76  2357.98  2387.47
                             2425.07  2443.83  2472.34  4109.42  4258.40
                             4265.01  4275.01  4441.56  4441.72  4452.03
                             4488.11  4517.94  4519.21  4543.65  4615.52
                             4667.04  4672.72  4688.61  4762.68  5024.23
                             5254.85  5582.88  5684.56  5688.29  5688.85
                             5737.17

 Zero-point correction=                           0.340247 (Hartree/Particle)
 Thermal correction to Energy=                    0.363983
 Thermal correction to Enthalpy=                  0.364927
 Thermal correction to Gibbs Free Energy=         0.278358
 Sum of electronic and zero-point Energies=           -804.682698
 Sum of electronic and thermal Energies=              -804.658961
 Sum of electronic and thermal Enthalpies=            -804.658017
 Sum of electronic and thermal Free Energies=         -804.744586

                     E (Thermal)             CV                S
                      KCal/Mol        Cal/Mol-Kelvin    Cal/Mol-Kelvin
 Total                  228.403             80.355            182.200
 Electronic               0.000              0.000              0.000
 Translational            0.889              2.981             42.267
 Rotational               0.889              2.981             34.716
 Vibrational            226.625             74.393            105.218
 Vibration     1          0.593              1.987              8.846
 Vibration     2          0.593              1.987              8.342
 Vibration     3          0.593              1.986              7.343
 Vibration     4          0.593              1.986              6.754
 Vibration     5          0.593              1.985              6.449
 Vibration     6          0.593              1.984              5.994
 Vibration     7          0.594              1.982              5.382
 Vibration     8          0.595              1.978              4.902
 Vibration     9          0.596              1.974              4.525
 Vibration    10          0.602              1.955              3.617
 Vibration    11          0.603              1.952              3.519
 Vibration    12          0.609              1.932              3.090
 Vibration    13          0.624              1.884              2.477
 Vibration    14          0.624              1.883              2.470
 Vibration    15          0.630              1.863              2.298
 Vibration    16          0.640              1.834              2.095
 Vibration    17          0.642              1.827              2.054
 Vibration    18          0.644              1.820              2.014
 Vibration    19          0.650              1.802              1.913
 Vibration    20          0.659              1.773              1.774
 Vibration    21          0.661              1.769              1.758
 Vibration    22          0.671              1.737              1.629
 Vibration    23          0.678              1.718              1.558
 Vibration    24          0.686              1.694              1.480
 Vibration    25          0.691              1.678              1.431
 Vibration    26          0.732              1.562              1.137
 Vibration    27          0.741              1.536              1.084
 Vibration    28          0.776              1.444              0.919
 Vibration    29          0.780              1.433              0.902
 Vibration    30          0.791              1.406              0.861
 Vibration    31          0.836              1.296              0.712
 Vibration    32          0.887              1.180              0.584
 Vibration    33          0.936              1.075              0.486
 Vibration    34          0.948              1.052              0.466

                           ! Non-Optimized Parameters !
 Normal termination of Gaussian 16 at Fri Jan 27 16:20:30 2023.
