 Gaussian 16, Revision A.03,
 Gaussian 16:  ES64L-G16RevA.03 25-Dec-2016

 -----------------------------
 # wB97XD/aug-cc-pVDZ opt freq
 -----------------------------

 ----
 blah
 ----
 Symbolic Z-matrix:
 Charge =  1 Multiplicity = 1

 SCF Done:  E(RwB97XD) =  -805.021734101     A.U. after   15 cycles
 SCF Done:  E(RwB97XD) =  -805.023579831     A.U. after   12 cycles
 SCF Done:  E(RwB97XD) =  -805.023304960     A.U. after   12 cycles
 SCF Done:  E(RwB97XD) =  -805.024137332     A.U. after   12 cycles
 SCF Done:  E(RwB97XD) =  -805.024422168     A.U. after   15 cycles
 SCF Done:  E(RwB97XD) =  -805.024735305     A.U. after   12 cycles
 SCF Done:  E(RwB97XD) =  -805.024820459     A.U. after   12 cycles
 SCF Done:  E(RwB97XD) =  -805.024956094     A.U. after   11 cycles
 SCF Done:  E(RwB97XD) =  -805.025055315     A.U. after   11 cycles
 SCF Done:  E(RwB97XD) =  -805.025117080     A.U. after   11 cycles
 SCF Done:  E(RwB97XD) =  -805.025266685     A.U. after   11 cycles
 SCF Done:  E(RwB97XD) =  -805.025266485     A.U. after   10 cycles
 SCF Done:  E(RwB97XD) =  -805.025267196     A.U. after   10 cycles
 SCF Done:  E(RwB97XD) =  -805.025267302     A.U. after   10 cycles
 SCF Done:  E(RwB97XD) =  -805.025267204     A.U. after   10 cycles
 SCF Done:  E(RwB97XD) =  -805.025267430     A.U. after   10 cycles
 SCF Done:  E(RwB97XD) =  -805.025267421     A.U. after    9 cycles
 SCF Done:  E(RwB97XD) =  -805.025267425     A.U. after    7 cycles
 SCF Done:  E(RwB97XD) =  -805.025267418     A.U. after    8 cycles
 Optimization completed.
    -- Stationary point found.
 Normal termination of Gaussian 16 at Mon Nov  7 21:12:38 2022.

 ----------------------------------------------------------------------
 #N Geom=AllCheck Guess=TCheck SCRF=Check GenChk RwB97XD/Aug-CC-pVDZ Fr
 eq
 ----------------------------------------------------------------------

 Structure from the checkpoint file:  "/gscratch/scrubbed/gds001/Gau-11767.chk"
 ----
 blah
 ----
 Charge =  1 Multiplicity = 1

                         Standard orientation:
 ---------------------------------------------------------------------
 Center     Atomic      Atomic             Coordinates (Angstroms)
 Number     Number       Type             X           Y           Z
 ---------------------------------------------------------------------
      1          6           0        0.317942    0.790051   -0.429263
      2          6           0        1.612453    1.175671   -0.111023
      3          6           0        1.807412    2.506750    0.255261
      4          6           0        0.729313    3.396479    0.302667
      5          6           0       -0.540228    2.931840    0.014528
      6          7           0       -0.702356    1.647217   -0.339930
      7          6           0        2.704987    0.133979   -0.131741
      8          6           0        2.981205   -0.484182   -1.524547
      9          6           0        3.163747   -1.995757   -1.256697
     10          6           0        3.235963   -2.092934    0.264919
     11          7           0        2.346837   -1.015783    0.715736
     12          8           0       -0.375311   -2.022652    0.426418
     13          1           0        2.896819   -3.056991    0.663346
     14          1           0        4.058764   -2.402108   -1.737938
     15          1           0        2.298406   -2.556480   -1.628874
     16          1           0        3.873348   -0.028316   -1.966679
     17          1           0        2.150427   -0.298138   -2.214943
     18          1           0        4.268353   -1.920764    0.624280
     19          1           0        3.632016    0.602153    0.250814
     20          1           0        0.053186   -0.218659   -0.733717
     21          1           0       -1.435456    3.545999    0.065761
     22          1           0        0.870240    4.436785    0.586130
     23          1           0        2.806638    2.855610    0.517722
     24          6           0        2.452875   -0.733898    2.141958
     25          1           0       -1.639270    1.181810   -0.483565
     26          1           0        0.562719   -1.769696    0.564913
     27          1           0       -0.444285   -2.953047    0.650685
     28          8           0       -2.520444   -0.176989   -0.530882
     29          1           0       -2.099476   -0.959115   -0.149157
     30          1           0       -3.472598   -0.367865   -0.674154
     31          1           0        2.198494   -1.634266    2.713160
     32          1           0        1.744837    0.055532    2.424311
     33          1           0        3.473082   -0.415782    2.425171
     34          8           0       -5.119285   -0.612546   -0.985410
     35          1           0       -5.455399   -0.968500   -1.810069
     36          1           0       -5.840703   -0.691080   -0.335697
     37          8           0       -7.163651   -0.794327    0.872659
     38          1           0       -7.482970   -1.602391    1.282364
     39          1           0       -7.893008   -0.170595    0.916853
 ---------------------------------------------------------------------

 SCF Done:  E(RwB97XD) =  -805.025267418     A.U. after    1 cycles

 The electronic state is 1-A.
 Alpha  occ. eigenvalues --  -19.38928 -19.37497 -19.36544 -19.36491 -14.66839
 Alpha  occ. eigenvalues --  -14.57339 -10.50467 -10.49663 -10.47274 -10.46520
 Alpha  occ. eigenvalues --  -10.46364 -10.45843 -10.42766 -10.42609 -10.41001
 Alpha  occ. eigenvalues --  -10.39971  -1.25257  -1.23310  -1.21707  -1.21305
 Alpha  occ. eigenvalues --   -1.20017  -1.16779  -1.07675  -1.04121  -0.99954
 Alpha  occ. eigenvalues --   -0.95403  -0.89880  -0.89233  -0.88208  -0.81941
 Alpha  occ. eigenvalues --   -0.79273  -0.78729  -0.74299  -0.73681  -0.73475
 Alpha  occ. eigenvalues --   -0.72976  -0.72465  -0.72112  -0.70438  -0.69082
 Alpha  occ. eigenvalues --   -0.67933  -0.67288  -0.64872  -0.64075  -0.63345
 Alpha  occ. eigenvalues --   -0.62203  -0.61172  -0.60454  -0.58607  -0.58368
 Alpha  occ. eigenvalues --   -0.57652  -0.56627  -0.55887  -0.55326  -0.55102
 Alpha  occ. eigenvalues --   -0.53350  -0.52742  -0.51772  -0.51676  -0.50947
 Alpha  occ. eigenvalues --   -0.50266  -0.49923  -0.48690  -0.43669
 Alpha virt. eigenvalues --   -0.13196  -0.10392  -0.05785  -0.04977  -0.04523
 Alpha virt. eigenvalues --   -0.03970  -0.03619  -0.02765  -0.02625  -0.02133
 Alpha virt. eigenvalues --   -0.01663  -0.01505  -0.01140  -0.00718  -0.00275

 Mulliken charges:
               1
     1  C    0.650519
     2  C    0.848046
     3  C    1.152290
     4  C    0.443142
     5  C    0.633047
     6  N   -0.045818
     7  C    1.026535
     8  C    1.180764
     9  C    0.739279
    10  C    1.308337
    11  N   -1.062491
    12  O   -0.385728
    13  H   -0.522439
    14  H   -0.315482
    15  H   -0.278487
    16  H   -0.462119
    17  H   -0.424917
    18  H   -0.440143
    19  H   -0.821418
    20  H   -1.216573
    21  H   -0.620947
    22  H   -0.562712
    23  H   -0.850468
    24  C    0.938891
    25  H    0.147176
    26  H    0.391038
    27  H    0.153070
    28  O   -0.446979
    29  H    0.155528
    30  H    0.317950
    31  H   -0.229934
    32  H   -0.162328
    33  H   -0.208472
    34  O   -0.347108
    35  H    0.126513
    36  H    0.215629
    37  O   -0.312155
    38  H    0.145711
    39  H    0.143253
 Sum of Mulliken charges =   1.00000

 Dipole moment (field-independent basis, Debye):
    X=             -3.2651    Y=              1.9620    Z=              1.1563  Tot=              3.9809
 Quadrupole moment (field-independent basis, Debye-Ang):
   XX=             -0.9156   YY=            -59.9762   ZZ=            -91.0415
   XY=              8.5371   XZ=             -3.4916   YZ=             -0.1582

  Exact polarizability: 179.729 -10.985 178.359   1.850   6.366 131.616
 Approx polarizability: 188.025  -3.260 189.289   4.644   8.527 146.563

                      1                      2                      3
                      A                      A                      A
 Frequencies --      9.1764                13.2543                21.8160
 Red. masses --      4.9715                 4.7475                 3.6362
 Frc consts  --      0.0002                 0.0005                 0.0010
 IR Inten    --      1.4968                 1.5641                 1.9013

                      4                      5                      6
                      A                      A                      A
 Frequencies --     30.6091                40.0236                49.5745
 Red. masses --      5.2877                 5.0471                 3.7202
 Frc consts  --      0.0029                 0.0048                 0.0054
 IR Inten    --      1.6778                 0.8254                 1.8079

                      7                      8                      9
                      A                      A                      A
 Frequencies --     53.5656                78.2372                78.5898
 Red. masses --      3.2898                 1.0775                 4.5425
 Frc consts  --      0.0056                 0.0039                 0.0165
 IR Inten    --      0.1071                40.7141                 6.3279

                     10                     11                     12
                      A                      A                      A
 Frequencies --     81.9350               114.1538               139.3701
 Red. masses --      4.6657                 4.0050                 4.4453
 Frc consts  --      0.0185                 0.0307                 0.0509
 IR Inten    --      0.1884                 0.6385                 7.6356

                     13                     14                     15
                      A                      A                      A
 Frequencies --    159.9747               164.1859               167.7797
 Red. masses --      3.1732                 1.2311                 1.7230
 Frc consts  --      0.0478                 0.0196                 0.0286
 IR Inten    --     12.5740               131.3340                96.2241

                     16                     17                     18
                      A                      A                      A
 Frequencies --    172.8332               181.9434               188.5653
 Red. masses --      1.9329                 1.2048                 1.9666
 Frc consts  --      0.0340                 0.0235                 0.0412
 IR Inten    --     23.5378               138.4314                 5.0317

                     19                     20                     21
                      A                      A                      A
 Frequencies --    206.9740               242.3027               246.2146
 Red. masses --      3.2540                 1.2842                 2.7794
 Frc consts  --      0.0821                 0.0444                 0.0993
 IR Inten    --      7.0902                42.6892                31.5964

                     22                     23                     24
                      A                      A                      A
 Frequencies --    254.0522               270.0058               318.5386
 Red. masses --      1.1024                 3.2265                 4.2034
 Frc consts  --      0.0419                 0.1386                 0.2513
 IR Inten    --      1.6048                 2.2328                 0.9064

                     25                     26                     27
                      A                      A                      A
 Frequencies --    355.2700               391.0532               407.4894
 Red. masses --      5.0499                 2.7549                 3.0820
 Frc consts  --      0.3755                 0.2482                 0.3015
 IR Inten    --      6.2425                10.8347                 1.6448

                     28                     29                     30
                      A                      A                      A
 Frequencies --    411.9542               419.9293               483.6837
 Red. masses --      1.0642                 2.9499                 1.0486
 Frc consts  --      0.1064                 0.3065                 0.1445
 IR Inten    --      4.9984                 1.2502               115.6055

                     31                     32                     33
                      A                      A                      A
 Frequencies --    541.9416               557.0401               586.5642
 Red. masses --      1.3870                 2.2208                 2.9097
 Frc consts  --      0.2400                 0.4060                 0.5898
 IR Inten    --     66.9934                16.1612                 2.2834

                     34                     35                     36
                      A                      A                      A
 Frequencies --    630.4288               648.1522               657.4480
 Red. masses --      3.9169                 2.7851                 3.8917
 Frc consts  --      0.9172                 0.6894                 0.9911
 IR Inten    --      1.4355                15.7211                 1.0153

                     37                     38                     39
                      A                      A                      A
 Frequencies --    666.1215               715.5223               723.5891
 Red. masses --      1.2556                 1.4046                 1.0498
 Frc consts  --      0.3282                 0.4237                 0.3238
 IR Inten    --    159.1215                71.5953               104.7386

                     40                     41                     42
                      A                      A                      A
 Frequencies --    728.3156               780.3401               832.3974
 Red. masses --      1.3495                 1.8215                 1.5523
 Frc consts  --      0.4218                 0.6535                 0.6337
 IR Inten    --     17.1745                 1.7240                61.8697

                     43                     44                     45
                      A                      A                      A
 Frequencies --    847.2178               856.7372               922.1162
 Red. masses --      1.0562                 2.0857                 1.8426
 Frc consts  --      0.4467                 0.9020                 0.9231
 IR Inten    --     77.8078                 1.2384                14.6603

                     46                     47                     48
                      A                      A                      A
 Frequencies --    933.8804               958.9711               974.4972
 Red. masses --      3.1730                 2.2732                 1.2977
 Frc consts  --      1.6304                 1.2317                 0.7261
 IR Inten    --      8.0170                10.0449                 8.6267

                     49                     50                     51
                      A                      A                      A
 Frequencies --    981.2879              1005.9465              1031.3844
 Red. masses --      1.6389                 1.7933                 1.3954
 Frc consts  --      0.9298                 1.0692                 0.8746
 IR Inten    --      3.8492                11.7572                 1.5680

                     52                     53                     54
                      A                      A                      A
 Frequencies --   1038.4056              1063.2982              1071.9958
 Red. masses --      3.1898                 2.3176                 1.7860
 Frc consts  --      2.0265                 1.5438                 1.2093
 IR Inten    --     12.9030                 8.1737                11.3780

                     55                     56                     57
                      A                      A                      A
 Frequencies --   1086.9620              1110.2055              1138.7920
 Red. masses --      2.2320                 2.2120                 1.2854
 Frc consts  --      1.5537                 1.6063                 0.9821
 IR Inten    --     13.8674                 8.3580                15.3981

                     58                     59                     60
                      A                      A                      A
 Frequencies --   1141.7837              1151.5225              1188.7993
 Red. masses --      1.2590                 1.3436                 1.7545
 Frc consts  --      0.9670                 1.0497                 1.4609
 IR Inten    --      1.1479                18.9617                12.6439

                     61                     62                     63
                      A                      A                      A
 Frequencies --   1211.4472              1224.5845              1240.8817
 Red. masses --      1.3797                 1.4192                 1.7547
 Frc consts  --      1.1930                 1.2540                 1.5919
 IR Inten    --     11.1932                 5.4859                16.5014

                     64                     65                     66
                      A                      A                      A
 Frequencies --   1257.1624              1266.5127              1280.2377
 Red. masses --      1.7096                 1.6658                 1.7947
 Frc consts  --      1.5920                 1.5743                 1.7331
 IR Inten    --      1.2358                14.9913                 8.3171

                     67                     68                     69
                      A                      A                      A
 Frequencies --   1308.1601              1330.5724              1334.9985
 Red. masses --      1.3231                 1.6847                 1.3667
 Frc consts  --      1.3340                 1.7573                 1.4351
 IR Inten    --      4.0204                46.8536                 2.1761

                     70                     71                     72
                      A                      A                      A
 Frequencies --   1354.7682              1378.1601              1382.5130
 Red. masses --      1.4104                 1.8132                 1.7112
 Frc consts  --      1.5252                 2.0291                 1.9270
 IR Inten    --      2.0619                 8.9699                 9.5790

                     73                     74                     75
                      A                      A                      A
 Frequencies --   1391.1476              1426.1011              1450.7048
 Red. masses --      1.8495                 1.6028                 1.1984
 Frc consts  --      2.1089                 1.9205                 1.4859
 IR Inten    --      8.0857                43.0430                 3.3274

                     76                     77                     78
                      A                      A                      A
 Frequencies --   1481.4468              1486.0362              1490.5494
 Red. masses --      1.0472                 1.0686                 1.0750
 Frc consts  --      1.3541                 1.3903                 1.4072
 IR Inten    --     14.8708                 9.6137                 7.1308

                     79                     80                     81
                      A                      A                      A
 Frequencies --   1505.5368              1513.0659              1522.8682
 Red. masses --      1.1038                 1.7473                 1.2324
 Frc consts  --      1.4741                 2.3569                 1.6840
 IR Inten    --     10.0453                52.2620                12.4912

                     82                     83                     84
                      A                      A                      A
 Frequencies --   1596.9401              1627.2224              1644.5946
 Red. masses --      1.7576                 1.1034                 1.2242
 Frc consts  --      2.6409                 1.7213                 1.9508
 IR Inten    --     39.6382               133.9959                71.7573

                     85                     86                     87
                      A                      A                      A
 Frequencies --   1660.7204              1680.9822              1706.6992
 Red. masses --      1.1159                 1.1783                 2.7357
 Frc consts  --      1.8132                 1.9617                 4.6950
 IR Inten    --     18.9932                15.0051                85.9696

                     88                     89                     90
                      A                      A                      A
 Frequencies --   1714.3362              2957.7875              2981.4155
 Red. masses --      4.5715                 1.0937                 1.0835
 Frc consts  --      7.9159                 5.6377                 5.6746
 IR Inten    --     15.8342              1804.4985                26.8698

                     91                     92                     93
                      A                      A                      A
 Frequencies --   2987.9181              2993.1124              3090.6343
 Red. masses --      1.0709                 1.0512                 1.0630
 Frc consts  --      5.6332                 5.5485                 5.9826
 IR Inten    --     49.4275                74.2355                14.2103

                     94                     95                     96
                      A                      A                      A
 Frequencies --   3099.6782              3104.1497              3118.2297
 Red. masses --      1.0665                 1.0860                 1.0913
 Frc consts  --      6.0373                 6.1654                 6.2521
 IR Inten    --     18.7932                20.1040                22.2872

                     97                     98                     99
                      A                      A                      A
 Frequencies --   3142.0043              3148.2011              3163.0867
 Red. masses --      1.1048                 1.1034                 1.1052
 Frc consts  --      6.4260                 6.4435                 6.5153
 IR Inten    --      2.9324                14.7088                22.9831

                    100                    101                    102
                      A                      A                      A
 Frequencies --   3213.2714              3246.4022              3257.8073
 Red. masses --      1.0926                 1.0930                 1.0958
 Frc consts  --      6.6466                 6.7873                 6.8524
 IR Inten    --      0.4735                 1.5424                29.3929

                    103                    104                    105
                      A                      A                      A
 Frequencies --   3262.9754              3477.0508              3483.5186
 Red. masses --      1.1004                 1.0650                 1.0626
 Frc consts  --      6.9029                 7.5862                 7.5969
 IR Inten    --      2.1125              1889.1626               376.2213

                    106                    107                    108
                      A                      A                      A
 Frequencies --   3652.4412              3812.0479              3878.8932
 Red. masses --      1.0593                 1.0707                 1.0451
 Frc consts  --      8.3257                 9.1669                 9.2649
 IR Inten    --    541.3876               306.6581                23.8318

                    109                    110                    111
                      A                      A                      A
 Frequencies --   3945.7572              3959.2656              3986.1873
 Red. masses --      1.0682                 1.0698                 1.0830
 Frc consts  --      9.7987                 9.8809                10.1388
 IR Inten    --    101.1433               102.1269               108.8691

 - Thermochemistry -
 -------------------
 Temperature   298.150 Kelvin.  Pressure   1.00000 Atm.
 Atom     1 has atomic number  6 and mass  12.00000

 Molecular mass:   235.16578 amu.
 Principal axes and moments of inertia in atomic units:
                           1         2         3
     Eigenvalues --  3097.841999043.06013**********
           X            1.00000  -0.00297   0.00056
           Y            0.00297   0.99999   0.00360
           Z           -0.00057  -0.00360   0.99999
 This molecule is an asymmetric top.
 Rotational symmetry number  1.
 Warning -- assumption of classical behavior for rotation
           may cause significant error
 Rotational temperatures (Kelvin)      0.02796     0.00958     0.00806
 Rotational constants (GHZ):           0.58258     0.19957     0.16784
 Zero-point vibrational energy     895736.8 (Joules/Mol)
                                  214.08624 (Kcal/Mol)
 Warning -- explicit consideration of  33 degrees of freedom as
           vibrations may cause significant error
 Vibrational temperatures:     13.20    19.07    31.39    44.04    57.59
          (Kelvin)             71.33    77.07   112.57   113.07   117.89
                              164.24   200.52   230.17   236.23   241.40
                              248.67   261.78   271.30   297.79   348.62
                              354.25   365.52   388.48   458.31   511.15
                              562.64   586.29   592.71   604.18   695.91
                              779.73   801.46   843.94   907.05   932.55
                              945.92   958.40  1029.48  1041.08  1047.88
                             1122.74  1197.63  1218.96  1232.65  1326.72
                             1343.65  1379.75  1402.08  1411.85  1447.33
                             1483.93  1494.03  1529.85  1542.36  1563.90
                             1597.34  1638.47  1642.77  1656.78  1710.42
                             1743.00  1761.90  1785.35  1808.78  1822.23
                             1841.98  1882.15  1914.40  1920.77  1949.21
                             1982.86  1989.13  2001.55  2051.84  2087.24
                             2131.47  2138.07  2144.57  2166.13  2176.96
                             2191.07  2297.64  2341.21  2366.20  2389.41
                             2418.56  2455.56  2466.55  4255.60  4289.59
                             4298.95  4306.42  4446.73  4459.75  4466.18
                             4486.44  4520.64  4529.56  4550.98  4623.18
                             4670.85  4687.26  4694.69  5002.70  5012.01
                             5255.05  5484.69  5580.86  5677.06  5696.50
                             5735.23

 Zero-point correction=                           0.341168 (Hartree/Particle)
 Thermal correction to Energy=                    0.364525
 Thermal correction to Enthalpy=                  0.365470
 Thermal correction to Gibbs Free Energy=         0.283078
 Sum of electronic and zero-point Energies=           -804.684099
 Sum of electronic and thermal Energies=              -804.660742
 Sum of electronic and thermal Enthalpies=            -804.659798
 Sum of electronic and thermal Free Energies=         -804.742189

                     E (Thermal)             CV                S
                      KCal/Mol        Cal/Mol-Kelvin    Cal/Mol-Kelvin
 Total                  228.743             80.025            173.408
 Electronic               0.000              0.000              0.000
 Translational            0.889              2.981             42.267
 Rotational               0.889              2.981             34.065
 Vibrational            226.966             74.063             97.076
 Vibration     1          0.593              1.987              8.182
 Vibration     2          0.593              1.987              7.451
 Vibration     3          0.593              1.985              6.462
 Vibration     4          0.594              1.984              5.790
 Vibration     5          0.594              1.981              5.258
 Vibration     6          0.595              1.978              4.834
 Vibration     7          0.596              1.976              4.681
 Vibration     8          0.600              1.964              3.935
 Vibration     9          0.600              1.964              3.926
 Vibration    10          0.600              1.962              3.844
 Vibration    11          0.607              1.938              3.197
 Vibration    12          0.615              1.914              2.813
 Vibration    13          0.622              1.891              2.550
 Vibration    14          0.623              1.886              2.501
 Vibration    15          0.625              1.882              2.460
 Vibration    16          0.626              1.876              2.404
 Vibration    17          0.630              1.864              2.308
 Vibration    18          0.633              1.856              2.242
 Vibration    19          0.641              1.830              2.070
 Vibration    20          0.658              1.775              1.786
 Vibration    21          0.661              1.769              1.758
 Vibration    22          0.665              1.756              1.702
 Vibration    23          0.674              1.728              1.596
 Vibration    24          0.705              1.638              1.318
 Vibration    25          0.731              1.564              1.143
 Vibration    26          0.759              1.489              0.996
 Vibration    27          0.772              1.454              0.936
 Vibration    28          0.776              1.444              0.920
 Vibration    29          0.783              1.427              0.892
 Vibration    30          0.840              1.286              0.700
 Vibration    31          0.897              1.157              0.561
 Vibration    32          0.913              1.124              0.530
 Vibration    33          0.944              1.060              0.473

                           ! Non-Optimized Parameters !
 Normal termination of Gaussian 16 at Mon Nov  7 22:11:07 2022.
