 Gaussian 16, Revision A.03,
 Gaussian 16:  ES64L-G16RevA.03 25-Dec-2016

 -----------------------------
 # wB97XD/aug-cc-pVDZ opt freq
 -----------------------------

 ----
 blah
 ----
 Symbolic Z-matrix:
 Charge =  1 Multiplicity = 1

 SCF Done:  E(RwB97XD) =  -805.020826127     A.U. after   14 cycles
 SCF Done:  E(RwB97XD) =  -805.021348621     A.U. after   15 cycles
 SCF Done:  E(RwB97XD) =  -805.020469698     A.U. after   15 cycles
 SCF Done:  E(RwB97XD) =  -805.021886329     A.U. after   13 cycles
 SCF Done:  E(RwB97XD) =  -805.022199497     A.U. after   15 cycles
 SCF Done:  E(RwB97XD) =  -805.021634012     A.U. after   15 cycles
 SCF Done:  E(RwB97XD) =  -805.022405848     A.U. after   15 cycles
 SCF Done:  E(RwB97XD) =  -805.022450748     A.U. after   12 cycles
 SCF Done:  E(RwB97XD) =  -805.022490381     A.U. after   11 cycles
 SCF Done:  E(RwB97XD) =  -805.022523476     A.U. after   12 cycles
 SCF Done:  E(RwB97XD) =  -805.022690905     A.U. after   10 cycles
 SCF Done:  E(RwB97XD) =  -805.022690935     A.U. after    8 cycles
 SCF Done:  E(RwB97XD) =  -805.022690926     A.U. after    9 cycles
 SCF Done:  E(RwB97XD) =  -805.022690966     A.U. after    9 cycles
 SCF Done:  E(RwB97XD) =  -805.022691036     A.U. after    9 cycles
 SCF Done:  E(RwB97XD) =  -805.022691081     A.U. after    8 cycles
 SCF Done:  E(RwB97XD) =  -805.022691119     A.U. after    8 cycles
 SCF Done:  E(RwB97XD) =  -805.022691140     A.U. after    8 cycles
 SCF Done:  E(RwB97XD) =  -805.022691150     A.U. after    7 cycles
 Optimization completed.
    -- Stationary point found.
 Normal termination of Gaussian 16 at Fri Jan 27 15:49:35 2023.

 ----------------------------------------------------------------------
 #N Geom=AllCheck Guess=TCheck SCRF=Check GenChk RwB97XD/Aug-CC-pVDZ Fr
 eq
 ----------------------------------------------------------------------

 Structure from the checkpoint file:  "/gscratch/scrubbed/gds001/Gau-32327.chk"
 ----
 blah
 ----
 Charge =  1 Multiplicity = 1

                         Standard orientation:
 ---------------------------------------------------------------------
 Center     Atomic      Atomic             Coordinates (Angstroms)
 Number     Number       Type             X           Y           Z
 ---------------------------------------------------------------------
      1          6           0        1.956145   -1.941030   -1.331586
      2          6           0        1.758556   -0.767920   -0.598153
      3          6           0        0.475588   -0.516343   -0.129604
      4          7           0       -0.523992   -1.376253   -0.369253
      5          6           0       -0.349780   -2.510289   -1.062633
      6          6           0        0.901443   -2.822218   -1.564022
      7          6           0        2.894255    0.177450   -0.277612
      8          7           0        2.417333    1.529646   -0.022141
      9          6           0        3.407150    2.155184    0.850312
     10          6           0        3.718555    1.056588    1.859218
     11          6           0        3.666851   -0.230384    1.011391
     12          8           0       -2.928257   -0.901275    0.490588
     13          8           0       -4.684897    0.463114   -1.020639
     14          1           0        2.993638    3.064441    1.303030
     15          1           0        4.688348    1.196090    2.347972
     16          1           0        2.946023    1.036409    2.637272
     17          1           0        4.671205   -0.578389    0.745192
     18          1           0        3.168390   -1.050325    1.540957
     19          1           0        4.318744    2.438376    0.285625
     20          1           0        3.593241    0.159599   -1.138377
     21          1           0        0.238592    0.382463    0.434971
     22          1           0       -1.230084   -3.133876   -1.197938
     23          1           0        1.043911   -3.738525   -2.132027
     24          1           0        2.947029   -2.167105   -1.727208
     25          6           0        2.126755    2.286404   -1.225697
     26          1           0       -1.502412   -1.153176    0.001694
     27          1           0       -3.602243   -0.391943   -0.007508
     28          1           0       -3.260030   -1.072146    1.388675
     29          1           0       -5.419314    0.030256   -1.460678
     30          1           0       -4.948517    1.394168   -0.907047
     31          8           0       -3.718328   -1.494064    3.078625
     32          1           0       -4.304716   -2.225675    3.288961
     33          1           0       -3.843167   -0.850305    3.780814
     34          1           0        1.759164    3.282933   -0.953857
     35          1           0        1.344501    1.786162   -1.812623
     36          1           0        3.019161    2.406432   -1.871191
     37          8           0       -5.393519    3.127670   -0.723268
     38          1           0       -5.314017    3.760226   -1.442136
     39          1           0       -6.093939    3.461954   -0.156950
 ---------------------------------------------------------------------

 SCF Done:  E(RwB97XD) =  -805.022691150     A.U. after    1 cycles

 The electronic state is 1-A.
 Alpha  occ. eigenvalues --  -19.39738 -19.39420 -19.36986 -19.36410 -14.65465
 Alpha  occ. eigenvalues --  -14.54429 -10.49300 -10.48677 -10.46124 -10.45382
 Alpha  occ. eigenvalues --  -10.45374 -10.44231 -10.40871 -10.40826 -10.39737
 Alpha  occ. eigenvalues --  -10.38538  -1.24139  -1.23870  -1.23784  -1.21607
 Alpha  occ. eigenvalues --   -1.20184  -1.14835  -1.06501  -1.02783  -0.98394
 Alpha  occ. eigenvalues --   -0.93945  -0.88805  -0.87633  -0.86539  -0.80663
 Alpha  occ. eigenvalues --   -0.77719  -0.76850  -0.74437  -0.74138  -0.73232
 Alpha  occ. eigenvalues --   -0.72800  -0.72491  -0.71983  -0.69224  -0.67954
 Alpha  occ. eigenvalues --   -0.67340  -0.65918  -0.63002  -0.62960  -0.62628
 Alpha  occ. eigenvalues --   -0.61488  -0.60863  -0.59739  -0.59716  -0.57547
 Alpha  occ. eigenvalues --   -0.56487  -0.55432  -0.55098  -0.54408  -0.53536
 Alpha  occ. eigenvalues --   -0.52549  -0.52240  -0.51708  -0.51332  -0.50735
 Alpha  occ. eigenvalues --   -0.50380  -0.50184  -0.47366  -0.40488
 Alpha virt. eigenvalues --   -0.12343  -0.09057  -0.06051  -0.04819  -0.04663
 Alpha virt. eigenvalues --   -0.03769  -0.03115  -0.02924  -0.02544  -0.01985
 Alpha virt. eigenvalues --   -0.01815  -0.01146  -0.00867  -0.00760  -0.00325

 Mulliken charges:
               1
     1  C    1.090338
     2  C    0.809521
     3  C    0.721543
     4  N   -0.034473
     5  C    0.806525
     6  C    0.217691
     7  C    0.946164
     8  N   -0.428427
     9  C    1.213392
    10  C    0.615895
    11  C    0.958759
    12  O   -0.476799
    13  O   -0.385372
    14  H   -0.520944
    15  H   -0.281505
    16  H   -0.368232
    17  H   -0.358405
    18  H   -0.441996
    19  H   -0.424531
    20  H   -0.632143
    21  H   -0.999454
    22  H   -0.683718
    23  H   -0.559693
    24  H   -0.854177
    25  C    0.813063
    26  H    0.167545
    27  H    0.268166
    28  H    0.199008
    29  H    0.132257
    30  H    0.235519
    31  O   -0.333856
    32  H    0.149385
    33  H    0.154575
    34  H   -0.212545
    35  H   -0.308222
    36  H   -0.172332
    37  O   -0.316820
    38  H    0.146571
    39  H    0.147724
 Sum of Mulliken charges =   1.00000

 Dipole moment (field-independent basis, Debye):
    X=             -6.1461    Y=             -1.0943    Z=             -0.0047  Tot=              6.2428
 Quadrupole moment (field-independent basis, Debye-Ang):
   XX=            -10.4553   YY=            -58.9305   ZZ=            -73.3867
   XY=            -14.7247   XZ=             -9.8869   YZ=             -0.1832

  Exact polarizability: 178.359  12.807 171.496   2.547  15.034 144.162
 Approx polarizability: 185.113   6.410 180.089  -5.869  17.757 158.175

                      1                      2                      3
                      A                      A                      A
 Frequencies --      8.2166                 9.4382                13.1511
 Red. masses --      4.5292                 4.3124                 2.6120
 Frc consts  --      0.0002                 0.0002                 0.0003
 IR Inten    --      0.3951                 0.5978                 0.6590

                      4                      5                      6
                      A                      A                      A
 Frequencies --     15.1559                21.0126                30.4681
 Red. masses --      4.9846                 3.8791                 4.2060
 Frc consts  --      0.0007                 0.0010                 0.0023
 IR Inten    --      2.1816                 0.4429                 0.2982

                      7                      8                      9
                      A                      A                      A
 Frequencies --     35.0610                41.8217                48.3057
 Red. masses --      5.3615                 5.0140                 6.9001
 Frc consts  --      0.0039                 0.0052                 0.0095
 IR Inten    --      1.9956                 0.6441                 4.9195

                     10                     11                     12
                      A                      A                      A
 Frequencies --     91.2604                92.7473               108.4699
 Red. masses --      1.2038                 2.5152                 1.0401
 Frc consts  --      0.0059                 0.0127                 0.0072
 IR Inten    --     33.9290                 8.3607                18.3601

                     13                     14                     15
                      A                      A                      A
 Frequencies --    121.6026               141.7863               170.6171
 Red. masses --      4.0260                 5.2711                 3.5225
 Frc consts  --      0.0351                 0.0624                 0.0604
 IR Inten    --      1.7514                26.1157                 2.9634

                     16                     17                     18
                      A                      A                      A
 Frequencies --    187.9758               195.9163               196.8297
 Red. masses --      1.1244                 1.7389                 1.1612
 Frc consts  --      0.0234                 0.0393                 0.0265
 IR Inten    --     89.8251                 2.8253               263.5127

                     19                     20                     21
                      A                      A                      A
 Frequencies --    211.3852               219.1728               229.6621
 Red. masses --      2.1958                 1.7471                 1.0785
 Frc consts  --      0.0578                 0.0494                 0.0335
 IR Inten    --     44.8624                84.4570                16.4681

                     22                     23                     24
                      A                      A                      A
 Frequencies --    246.0739               247.1311               272.0239
 Red. masses --      1.1107                 1.0575                 3.0078
 Frc consts  --      0.0396                 0.0381                 0.1311
 IR Inten    --      1.8356                56.8114                 1.1545

                     25                     26                     27
                      A                      A                      A
 Frequencies --    284.6463               297.5588               345.0382
 Red. masses --      5.4994                 3.8773                 4.5513
 Frc consts  --      0.2625                 0.2023                 0.3192
 IR Inten    --     41.4476                 1.8693                 7.4267

                     28                     29                     30
                      A                      A                      A
 Frequencies --    362.6997               414.2796               418.8677
 Red. masses --      3.0944                 1.0510                 3.0816
 Frc consts  --      0.2398                 0.1063                 0.3186
 IR Inten    --     20.7322                16.4367                 1.4281

                     31                     32                     33
                      A                      A                      A
 Frequencies --    429.3987               537.5558               589.2509
 Red. masses --      3.1777                 3.9083                 2.6844
 Frc consts  --      0.3452                 0.6654                 0.5492
 IR Inten    --      1.0487                 2.3611                 0.4061

                     34                     35                     36
                      A                      A                      A
 Frequencies --    631.5206               647.1143               653.2454
 Red. masses --      4.5586                 3.9537                 3.3005
 Frc consts  --      1.0712                 0.9755                 0.8298
 IR Inten    --     30.5155                 7.2111                 8.5947

                     37                     38                     39
                      A                      A                      A
 Frequencies --    688.8189               715.9865               722.5979
 Red. masses --      1.1202                 1.9809                 1.0544
 Frc consts  --      0.3132                 0.5983                 0.3244
 IR Inten    --     21.3014                42.2829               157.5914

                     40                     41                     42
                      A                      A                      A
 Frequencies --    739.6277               775.8734               836.8264
 Red. masses --      1.0443                 2.2357                 1.5156
 Frc consts  --      0.3366                 0.7929                 0.6253
 IR Inten    --     76.2488                 7.4771                36.6197

                     43                     44                     45
                      A                      A                      A
 Frequencies --    850.5402               864.8517               911.2260
 Red. masses --      1.0428                 2.0407                 1.7618
 Frc consts  --      0.4445                 0.8993                 0.8619
 IR Inten    --     69.6252                 5.0961                 8.3240

                     46                     47                     48
                      A                      A                      A
 Frequencies --    937.5335               965.8855               976.7357
 Red. masses --      3.2794                 1.9687                 1.9507
 Frc consts  --      1.6983                 1.0821                 1.0965
 IR Inten    --      9.6462                 4.6076                 6.3457

                     49                     50                     51
                      A                      A                      A
 Frequencies --    981.7066               997.6101              1031.8494
 Red. masses --      1.3215                 1.7332                 1.3855
 Frc consts  --      0.7504                 1.0163                 0.8691
 IR Inten    --      5.0033                 1.7174                 0.1639

                     52                     53                     54
                      A                      A                      A
 Frequencies --   1041.4782              1064.8315              1079.0755
 Red. masses --      3.5107                 2.2095                 1.6981
 Frc consts  --      2.2436                 1.4760                 1.1650
 IR Inten    --      6.1502                 5.0012                17.6067

                     55                     56                     57
                      A                      A                      A
 Frequencies --   1084.1180              1106.9866              1137.1487
 Red. masses --      2.1614                 2.0001                 1.2703
 Frc consts  --      1.4967                 1.4441                 0.9678
 IR Inten    --      1.7222                10.2576                 6.2590

                     58                     59                     60
                      A                      A                      A
 Frequencies --   1140.5555              1186.6395              1204.7294
 Red. masses --      1.4995                 1.4408                 1.1649
 Frc consts  --      1.1493                 1.1954                 0.9962
 IR Inten    --      3.7187                 7.0030                10.1921

                     61                     62                     63
                      A                      A                      A
 Frequencies --   1217.8251              1234.7971              1253.5039
 Red. masses --      1.6874                 1.8776                 1.6797
 Frc consts  --      1.4744                 1.6868                 1.5550
 IR Inten    --      5.3417                15.3785                10.2277

                     64                     65                     66
                      A                      A                      A
 Frequencies --   1276.0362              1285.1354              1297.8008
 Red. masses --      1.5378                 2.2248                 1.4577
 Frc consts  --      1.4753                 2.1649                 1.4466
 IR Inten    --      7.8382                28.3660                15.1774

                     67                     68                     69
                      A                      A                      A
 Frequencies --   1305.8513              1307.1636              1336.7774
 Red. masses --      1.2963                 1.1152                 1.3977
 Frc consts  --      1.3024                 1.1227                 1.4716
 IR Inten    --      0.7870                28.4170                 6.1279

                     70                     71                     72
                      A                      A                      A
 Frequencies --   1347.1258              1361.5385              1379.1018
 Red. masses --      1.5357                 2.8753                 1.6944
 Frc consts  --      1.6420                 3.1405                 1.8987
 IR Inten    --      2.4414                16.7098                16.9653

                     73                     74                     75
                      A                      A                      A
 Frequencies --   1392.7202              1433.8951              1452.9546
 Red. masses --      1.7193                 1.7450                 1.2307
 Frc consts  --      1.9648                 2.1139                 1.5307
 IR Inten    --     11.4667                39.9460                 7.7414

                     76                     77                     78
                      A                      A                      A
 Frequencies --   1477.9795              1484.0861              1490.2687
 Red. masses --      1.0462                 1.0797                 1.0726
 Frc consts  --      1.3465                 1.4011                 1.4035
 IR Inten    --     12.0201                 6.0073                 7.9684

                     79                     80                     81
                      A                      A                      A
 Frequencies --   1502.0319              1511.7882              1520.3818
 Red. masses --      1.0911                 2.1438                 1.1658
 Frc consts  --      1.4503                 2.8868                 1.5878
 IR Inten    --      8.6148                29.8169                 1.0210

                     82                     83                     84
                      A                      A                      A
 Frequencies --   1618.2904              1626.5210              1630.0992
 Red. masses --      1.3864                 1.4287                 1.1065
 Frc consts  --      2.1392                 2.2270                 1.7324
 IR Inten    --     58.7532                87.5122                75.4430

                     85                     86                     87
                      A                      A                      A
 Frequencies --   1646.5436              1670.9746              1696.8506
 Red. masses --      1.1143                 1.1317                 4.3444
 Frc consts  --      1.7799                 1.8617                 7.3700
 IR Inten    --     13.6159                18.3118                 7.5238

                     88                     89                     90
                      A                      A                      A
 Frequencies --   1718.9427              2678.1327              2948.8513
 Red. masses --      2.6761                 1.1145                 1.0821
 Frc consts  --      4.6588                 4.7099                 5.5442
 IR Inten    --      7.9320              3469.6280                26.9064

                     91                     92                     93
                      A                      A                      A
 Frequencies --   2959.2154              2969.5085              3088.7378
 Red. masses --      1.0723                 1.0550                 1.0815
 Frc consts  --      5.5325                 5.4814                 6.0793
 IR Inten    --     60.7805                77.7625                31.0031

                     94                     95                     96
                      A                      A                      A
 Frequencies --   3090.3688              3097.6823              3119.4497
 Red. masses --      1.0619                 1.0650                 1.0905
 Frc consts  --      5.9750                 6.0210                 6.2520
 IR Inten    --     14.7916                23.0359                26.0835

                     97                     98                     99
                      A                      A                      A
 Frequencies --   3140.4897              3142.9764              3159.8258
 Red. masses --      1.1054                 1.1020                 1.1059
 Frc consts  --      6.4236                 6.4135                 6.5057
 IR Inten    --      4.3935                19.9193                26.0374

                    100                    101                    102
                      A                      A                      A
 Frequencies --   3208.3993              3243.6754              3248.8408
 Red. masses --      1.0923                 1.0928                 1.0949
 Frc consts  --      6.6246                 6.7740                 6.8090
 IR Inten    --      0.6017                 0.9756                 6.3659

                    103                    104                    105
                      A                      A                      A
 Frequencies --   3259.6035              3509.4263              3650.2170
 Red. masses --      1.1001                 1.0604                 1.0584
 Frc consts  --      6.8868                 7.6950                 8.3087
 IR Inten    --      1.1170              1145.5152               571.4815

                    106                    107                    108
                      A                      A                      A
 Frequencies --   3680.4087              3878.1155              3878.2368
 Red. masses --      1.0741                 1.0453                 1.0452
 Frc consts  --      8.5722                 9.2624                 9.2623
 IR Inten    --    781.9316                19.7686                27.0030

                    109                    110                    111
                      A                      A                      A
 Frequencies --   3954.5777              3983.8823              3984.7947
 Red. masses --      1.0697                 1.0828                 1.0829
 Frc consts  --      9.8558                10.1252                10.1309
 IR Inten    --     96.2637               106.2284               107.9944

 - Thermochemistry -
 -------------------
 Temperature   298.150 Kelvin.  Pressure   1.00000 Atm.
 Atom     1 has atomic number  6 and mass  12.00000

 Molecular mass:   235.16578 amu.
 Principal axes and moments of inertia in atomic units:
                           1         2         3
     Eigenvalues --  4044.006079599.32061**********
           X            1.00000   0.00204   0.00021
           Y           -0.00203   0.99981  -0.01936
           Z           -0.00025   0.01936   0.99981
 This molecule is an asymmetric top.
 Rotational symmetry number  1.
 Warning -- assumption of classical behavior for rotation
           may cause significant error
 Rotational temperatures (Kelvin)      0.02142     0.00902     0.00803
 Rotational constants (GHZ):           0.44628     0.18801     0.16734
 Zero-point vibrational energy     890991.2 (Joules/Mol)
                                  212.95201 (Kcal/Mol)
 Warning -- explicit consideration of  33 degrees of freedom as
           vibrations may cause significant error
 Vibrational temperatures:     11.82    13.58    18.92    21.81    30.23
          (Kelvin)             43.84    50.45    60.17    69.50   131.30
                              133.44   156.06   174.96   204.00   245.48
                              270.46   281.88   283.19   304.14   315.34
                              330.43   354.05   355.57   391.38   409.54
                              428.12   496.43   521.84   596.06   602.66
                              617.81   773.42   847.80   908.62   931.05
                              939.87   991.06  1030.14  1039.66  1064.16
                             1116.31  1204.01  1223.74  1244.33  1311.05
                             1348.90  1389.69  1405.30  1412.46  1435.34
                             1484.60  1498.45  1532.06  1552.55  1559.80
                             1592.71  1636.10  1641.00  1707.31  1733.34
                             1752.18  1776.60  1803.51  1835.93  1849.02
                             1867.25  1878.83  1880.72  1923.32  1938.21
                             1958.95  1984.22  2003.81  2063.06  2090.48
                             2126.48  2135.27  2144.16  2161.09  2175.13
                             2187.49  2328.36  2340.20  2345.35  2369.01
                             2404.16  2441.39  2473.18  3853.24  4242.74
                             4257.65  4272.46  4444.00  4446.35  4456.87
                             4488.19  4518.46  4522.04  4546.28  4616.17
                             4666.93  4674.36  4689.84  5049.28  5251.85
                             5295.29  5579.74  5579.92  5689.76  5731.92
                             5733.23

 Zero-point correction=                           0.339361 (Hartree/Particle)
 Thermal correction to Energy=                    0.363755
 Thermal correction to Enthalpy=                  0.364699
 Thermal correction to Gibbs Free Energy=         0.276390
 Sum of electronic and zero-point Energies=           -804.683331
 Sum of electronic and thermal Energies=              -804.658936
 Sum of electronic and thermal Enthalpies=            -804.657992
 Sum of electronic and thermal Free Energies=         -804.746301

                     E (Thermal)             CV                S
                      KCal/Mol        Cal/Mol-Kelvin    Cal/Mol-Kelvin
 Total                  228.260             81.202            185.861
 Electronic               0.000              0.000              0.000
 Translational            0.889              2.981             42.267
 Rotational               0.889              2.981             34.392
 Vibrational            226.482             75.241            109.202
 Vibration     1          0.593              1.987              8.401
 Vibration     2          0.593              1.987              8.126
 Vibration     3          0.593              1.987              7.467
 Vibration     4          0.593              1.986              7.185
 Vibration     5          0.593              1.986              6.536
 Vibration     6          0.594              1.984              5.799
 Vibration     7          0.594              1.982              5.520
 Vibration     8          0.594              1.980              5.171
 Vibration     9          0.595              1.978              4.886
 Vibration    10          0.602              1.955              3.633
 Vibration    11          0.602              1.954              3.601
 Vibration    12          0.606              1.942              3.296
 Vibration    13          0.609              1.931              3.075
 Vibration    14          0.615              1.911              2.780
 Vibration    15          0.626              1.879              2.429
 Vibration    16          0.633              1.856              2.248
 Vibration    17          0.636              1.846              2.171
 Vibration    18          0.636              1.844              2.163
 Vibration    19          0.643              1.823              2.032
 Vibration    20          0.647              1.812              1.966
 Vibration    21          0.652              1.796              1.882
 Vibration    22          0.661              1.769              1.759
 Vibration    23          0.661              1.768              1.751
 Vibration    24          0.675              1.725              1.583
 Vibration    25          0.683              1.702              1.506
 Vibration    26          0.691              1.678              1.431
 Vibration    27          0.723              1.585              1.189
 Vibration    28          0.737              1.549              1.111
 Vibration    29          0.778              1.439              0.912
 Vibration    30          0.782              1.429              0.896
 Vibration    31          0.791              1.406              0.861
 Vibration    32          0.893              1.167              0.571
 Vibration    33          0.947              1.055              0.469

                           ! Non-Optimized Parameters !
 Normal termination of Gaussian 16 at Fri Jan 27 16:42:12 2023.
