 Gaussian 16, Revision A.03,
 Gaussian 16:  ES64L-G16RevA.03 25-Dec-2016

 -----------------------------
 # wB97XD/aug-cc-pVDZ opt freq
 -----------------------------

 ----
 blah
 ----
 Symbolic Z-matrix:
 Charge =  1 Multiplicity = 1

 SCF Done:  E(RwB97XD) =  -805.020483087     A.U. after   14 cycles
 SCF Done:  E(RwB97XD) =  -805.021408789     A.U. after   14 cycles
 SCF Done:  E(RwB97XD) =  -805.021326392     A.U. after   15 cycles
 SCF Done:  E(RwB97XD) =  -805.021006901     A.U. after   15 cycles
 SCF Done:  E(RwB97XD) =  -805.021901880     A.U. after   13 cycles
 SCF Done:  E(RwB97XD) =  -805.021796496     A.U. after   14 cycles
 SCF Done:  E(RwB97XD) =  -805.021951151     A.U. after   12 cycles
 SCF Done:  E(RwB97XD) =  -805.022050713     A.U. after   11 cycles
 SCF Done:  E(RwB97XD) =  -805.021831658     A.U. after   14 cycles
 SCF Done:  E(RwB97XD) =  -805.022052047     A.U. after   14 cycles
 SCF Done:  E(RwB97XD) =  -805.022224000     A.U. after   10 cycles
 SCF Done:  E(RwB97XD) =  -805.022224112     A.U. after    9 cycles
 SCF Done:  E(RwB97XD) =  -805.022224246     A.U. after    9 cycles
 SCF Done:  E(RwB97XD) =  -805.022224326     A.U. after   10 cycles
 SCF Done:  E(RwB97XD) =  -805.022224336     A.U. after    8 cycles
 SCF Done:  E(RwB97XD) =  -805.022224323     A.U. after    8 cycles
 SCF Done:  E(RwB97XD) =  -805.022224288     A.U. after    8 cycles
 SCF Done:  E(RwB97XD) =  -805.022224263     A.U. after    8 cycles
 SCF Done:  E(RwB97XD) =  -805.022224255     A.U. after    8 cycles
 Optimization completed.
    -- Stationary point found.
 Normal termination of Gaussian 16 at Fri Jan 27 20:36:22 2023.

 ----------------------------------------------------------------------
 #N Geom=AllCheck Guess=TCheck SCRF=Check GenChk RwB97XD/Aug-CC-pVDZ Fr
 eq
 ----------------------------------------------------------------------

 Structure from the checkpoint file:  "/gscratch/scrubbed/gds001/Gau-14974.chk"
 ----
 blah
 ----
 Charge =  1 Multiplicity = 1

                         Standard orientation:
 ---------------------------------------------------------------------
 Center     Atomic      Atomic             Coordinates (Angstroms)
 Number     Number       Type             X           Y           Z
 ---------------------------------------------------------------------
      1          6           0        4.165091   -1.190585    0.301164
      2          6           0        3.165432   -0.263613   -0.436094
      3          7           0        3.863487    1.008009   -0.537991
      4          6           0        5.252297    0.660373   -0.828629
      5          6           0        5.539775   -0.506742    0.115878
      6          6           0        1.852604   -0.119706    0.295678
      7          6           0        0.729881   -0.832560   -0.091343
      8          7           0       -0.421281   -0.731203    0.594162
      9          6           0       -0.553970    0.060964    1.666111
     10          6           0        0.525842    0.810996    2.101472
     11          6           0        1.731732    0.717072    1.412432
     12          6           0        3.279423    1.927581   -1.496555
     13          1           0        2.954935   -0.682596   -1.443226
     14          1           0        3.904690   -1.274957    1.363010
     15          1           0        4.132805   -2.200755   -0.122270
     16          1           0        5.913597   -0.135545    1.076562
     17          1           0        6.291787   -1.188693   -0.294229
     18          1           0        5.365705    0.344170   -1.885693
     19          1           0        5.903102    1.527409   -0.665220
     20          1           0        2.599849    1.301309    1.717500
     21          1           0       -1.531501    0.072888    2.142036
     22          1           0       -1.254742   -1.294631    0.264931
     23          1           0        0.714605   -1.496829   -0.953262
     24          1           0        2.252536    2.184672   -1.204360
     25          1           0        3.256170    1.505583   -2.521340
     26          1           0        3.863919    2.854569   -1.517717
     27          1           0        0.417634    1.458782    2.968251
     28          8           0       -2.470891   -2.113927   -0.316066
     29          1           0       -3.251644   -1.651669   -0.717521
     30          1           0       -2.756584   -2.993285   -0.061440
     31          8           0       -4.462859   -0.761678   -1.357709
     32          1           0       -4.672718   -0.799078   -2.293013
     33          1           0       -5.315172   -0.624620   -0.887696
     34          8           0       -6.765124   -0.404870   -0.010299
     35          1           0       -7.414683   -1.103143    0.095090
     36          1           0       -7.268087    0.429709   -0.020430
     37          8           0       -8.189129    1.970593   -0.026463
     38          1           0       -8.721675    2.306558   -0.751923
     39          1           0       -8.504588    2.418882    0.762370
 ---------------------------------------------------------------------

 SCF Done:  E(RwB97XD) =  -805.022224255     A.U. after    1 cycles

 The electronic state is 1-A.
 Alpha  occ. eigenvalues --  -19.38943 -19.38481 -19.36773 -19.36635 -14.66534
 Alpha  occ. eigenvalues --  -14.54460 -10.50133 -10.49758 -10.46325 -10.45929
 Alpha  occ. eigenvalues --  -10.45847 -10.44374 -10.40772 -10.40715 -10.39783
 Alpha  occ. eigenvalues --  -10.38423  -1.24942  -1.23341  -1.22982  -1.21384
 Alpha  occ. eigenvalues --   -1.20125  -1.14958  -1.06890  -1.03637  -0.98304
 Alpha  occ. eigenvalues --   -0.94178  -0.89436  -0.87912  -0.86753  -0.81737
 Alpha  occ. eigenvalues --   -0.77667  -0.76460  -0.74321  -0.73874  -0.73716
 Alpha  occ. eigenvalues --   -0.72488  -0.72360  -0.72116  -0.69777  -0.67891
 Alpha  occ. eigenvalues --   -0.67653  -0.66791  -0.63703  -0.62787  -0.62375
 Alpha  occ. eigenvalues --   -0.61609  -0.61186  -0.59517  -0.58982  -0.57591
 Alpha  occ. eigenvalues --   -0.56288  -0.55445  -0.55267  -0.54459  -0.53528
 Alpha  occ. eigenvalues --   -0.52379  -0.51863  -0.51809  -0.51643  -0.50370
 Alpha  occ. eigenvalues --   -0.50011  -0.50004  -0.48031  -0.40529
 Alpha virt. eigenvalues --   -0.13050  -0.09589  -0.05975  -0.04727  -0.04380
 Alpha virt. eigenvalues --   -0.03707  -0.03323  -0.02806  -0.02237  -0.02055
 Alpha virt. eigenvalues --   -0.01849  -0.01314  -0.00997  -0.00750  -0.00254

 Mulliken charges:
               1
     1  C    0.935410
     2  C    0.784420
     3  N   -0.432087
     4  C    1.192332
     5  C    0.671628
     6  C    1.267870
     7  C    0.616577
     8  N   -0.067062
     9  C    0.747288
    10  C    0.194185
    11  C    1.129958
    12  C    0.845455
    13  H   -0.805555
    14  H   -0.439636
    15  H   -0.379550
    16  H   -0.329150
    17  H   -0.279789
    18  H   -0.379935
    19  H   -0.531952
    20  H   -0.968524
    21  H   -0.645253
    22  H    0.101371
    23  H   -0.829090
    24  H   -0.339392
    25  H   -0.165884
    26  H   -0.235220
    27  H   -0.586153
    28  O   -0.473852
    29  H    0.291983
    30  H    0.132620
    31  O   -0.402283
    32  H    0.126511
    33  H    0.273506
    34  O   -0.354194
    35  H    0.130575
    36  H    0.224513
    37  O   -0.314002
    38  H    0.148727
    39  H    0.143634
 Sum of Mulliken charges =   1.00000

 Dipole moment (field-independent basis, Debye):
    X=             -7.8112    Y=             -0.0297    Z=              1.1893  Tot=              7.9013
 Quadrupole moment (field-independent basis, Debye-Ang):
   XX=             38.0077   YY=            -77.7064   ZZ=            -81.6388
   XY=            -10.8488   XZ=              1.6312   YZ=              3.9608

  Exact polarizability: 201.481   4.694 145.513 -13.346   7.814 149.058
 Approx polarizability: 189.502   6.762 163.215  -8.496  17.033 171.550

                      1                      2                      3
                      A                      A                      A
 Frequencies --      4.4359                 6.8607                14.7966
 Red. masses --      4.7310                 5.1262                 3.8633
 Frc consts  --      0.0001                 0.0001                 0.0005
 IR Inten    --      0.1852                 0.0653                 0.2322

                      4                      5                      6
                      A                      A                      A
 Frequencies --     17.3290                28.5269                34.0543
 Red. masses --      4.2897                 4.3598                 4.7660
 Frc consts  --      0.0008                 0.0021                 0.0033
 IR Inten    --      0.4466                 1.4537                 1.0777

                      7                      8                      9
                      A                      A                      A
 Frequencies --     36.2324                42.8336                58.2326
 Red. masses --      2.5107                 5.5995                 6.0526
 Frc consts  --      0.0019                 0.0061                 0.0121
 IR Inten    --      0.1225                 2.3815                 2.3756

                     10                     11                     12
                      A                      A                      A
 Frequencies --     89.0432                98.0966               108.6913
 Red. masses --      1.0402                 3.5599                 3.9349
 Frc consts  --      0.0049                 0.0202                 0.0274
 IR Inten    --     22.5468                 0.7781                 3.2561

                     13                     14                     15
                      A                      A                      A
 Frequencies --    151.1441               158.1500               184.1549
 Red. masses --      1.1382                 2.0028                 3.4945
 Frc consts  --      0.0153                 0.0295                 0.0698
 IR Inten    --    218.5759                 0.6061                15.1569

                     16                     17                     18
                      A                      A                      A
 Frequencies --    187.3754               201.9108               211.2218
 Red. masses --      2.8981                 1.3828                 1.1746
 Frc consts  --      0.0600                 0.0332                 0.0309
 IR Inten    --      0.3785               110.5480                59.5493

                     19                     20                     21
                      A                      A                      A
 Frequencies --    221.6995               241.6495               245.3812
 Red. masses --      4.4535                 1.0894                 1.1266
 Frc consts  --      0.1290                 0.0375                 0.0400
 IR Inten    --     44.4098                54.7714                 2.0543

                     22                     23                     24
                      A                      A                      A
 Frequencies --    261.2758               266.0699               286.0415
 Red. masses --      1.2042                 2.1684                 5.0575
 Frc consts  --      0.0484                 0.0904                 0.2438
 IR Inten    --     80.7220                25.9713                10.7784

                     25                     26                     27
                      A                      A                      A
 Frequencies --    308.5501               359.1077               370.1556
 Red. masses --      4.3521                 2.7999                 4.8275
 Frc consts  --      0.2441                 0.2127                 0.3897
 IR Inten    --      5.4293                 6.7411                26.5541

                     28                     29                     30
                      A                      A                      A
 Frequencies --    414.8741               415.8113               417.5488
 Red. masses --      2.1214                 1.2377                 3.1029
 Frc consts  --      0.2151                 0.1261                 0.3187
 IR Inten    --      9.4341                 6.2314                 2.8576

                     31                     32                     33
                      A                      A                      A
 Frequencies --    476.6986               541.7019               578.0013
 Red. masses --      1.0507                 2.6586                 1.5564
 Frc consts  --      0.1407                 0.4597                 0.3064
 IR Inten    --     31.1248                 1.2089                14.4191

                     34                     35                     36
                      A                      A                      A
 Frequencies --    598.4939               635.6854               645.9900
 Red. masses --      2.2293                 5.2732                 3.1859
 Frc consts  --      0.4705                 1.2555                 0.7833
 IR Inten    --     12.1493                34.8618                 2.7004

                     37                     38                     39
                      A                      A                      A
 Frequencies --    667.9925               711.3913               727.3083
 Red. masses --      4.4122                 1.9898                 1.0517
 Frc consts  --      1.1600                 0.5933                 0.3278
 IR Inten    --      1.8280                36.5836               134.7373

                     40                     41                     42
                      A                      A                      A
 Frequencies --    774.7902               838.4984               847.7744
 Red. masses --      1.7506                 1.5939                 1.1041
 Frc consts  --      0.6192                 0.6602                 0.4675
 IR Inten    --      3.0946                23.1535                84.1712

                     43                     44                     45
                      A                      A                      A
 Frequencies --    853.3758               923.7387               935.5453
 Red. masses --      1.8505                 1.6852                 3.4473
 Frc consts  --      0.7940                 0.8472                 1.7777
 IR Inten    --     28.4858                10.3482                 5.6569

                     46                     47                     48
                      A                      A                      A
 Frequencies --    948.2916               952.5425               968.2096
 Red. masses --      1.4887                 1.0951                 2.0905
 Frc consts  --      0.7888                 0.5854                 1.1546
 IR Inten    --     18.0885                61.9548                 0.4693

                     49                     50                     51
                      A                      A                      A
 Frequencies --    984.4362              1001.1283              1043.4133
 Red. masses --      1.4476                 1.8781                 3.5929
 Frc consts  --      0.8266                 1.1090                 2.3046
 IR Inten    --      2.0848                 1.5013                 3.1630

                     52                     53                     54
                      A                      A                      A
 Frequencies --   1044.4455              1060.7664              1080.5083
 Red. masses --      1.4382                 2.3293                 1.6897
 Frc consts  --      0.9244                 1.5443                 1.1623
 IR Inten    --      1.3809                 2.2163                16.8106

                     55                     56                     57
                      A                      A                      A
 Frequencies --   1085.6959              1112.0732              1136.7862
 Red. masses --      2.1319                 2.1953                 1.4331
 Frc consts  --      1.4806                 1.5996                 1.0911
 IR Inten    --      3.5441                11.3928                 9.3325

                     58                     59                     60
                      A                      A                      A
 Frequencies --   1138.4010              1198.1903              1206.4602
 Red. masses --      1.3070                 1.4984                 1.2796
 Frc consts  --      0.9980                 1.2675                 1.0974
 IR Inten    --      1.8259                10.8109                 5.6333

                     61                     62                     63
                      A                      A                      A
 Frequencies --   1219.9676              1243.9115              1251.5981
 Red. masses --      1.5759                 1.6239                 1.0869
 Frc consts  --      1.3819                 1.4804                 1.0032
 IR Inten    --      9.7073                 8.9213                28.7897

                     64                     65                     66
                      A                      A                      A
 Frequencies --   1256.9931              1270.7736              1292.0463
 Red. masses --      1.6268                 1.8824                 1.7378
 Frc consts  --      1.5144                 1.7910                 1.7093
 IR Inten    --     10.7111                20.6434                 6.8879

                     67                     68                     69
                      A                      A                      A
 Frequencies --   1305.0925              1322.7688              1329.0445
 Red. masses --      1.5046                 1.5338                 1.3950
 Frc consts  --      1.5099                 1.5812                 1.4518
 IR Inten    --     12.7364                15.1743                 5.6821

                     70                     71                     72
                      A                      A                      A
 Frequencies --   1348.3599              1355.7557              1378.7536
 Red. masses --      1.4824                 2.0233                 1.8653
 Frc consts  --      1.5879                 2.1912                 2.0892
 IR Inten    --      4.8673                 3.2305                25.2034

                     73                     74                     75
                      A                      A                      A
 Frequencies --   1390.1830              1441.1281              1453.6543
 Red. masses --      1.6372                 1.6164                 1.3795
 Frc consts  --      1.8642                 1.9779                 1.7175
 IR Inten    --     12.6197                10.8240                 3.4069

                     76                     77                     78
                      A                      A                      A
 Frequencies --   1477.4552              1484.3422              1489.4538
 Red. masses --      1.0460                 1.0711                 1.0808
 Frc consts  --      1.3453                 1.3905                 1.4127
 IR Inten    --     12.0715                 6.6348                 3.0080

                     79                     80                     81
                      A                      A                      A
 Frequencies --   1503.5042              1515.4592              1521.5350
 Red. masses --      1.0883                 1.9060                 1.2172
 Frc consts  --      1.4495                 2.5791                 1.6602
 IR Inten    --     10.9283                30.9221                 7.7636

                     82                     83                     84
                      A                      A                      A
 Frequencies --   1615.5005              1627.4193              1636.8306
 Red. masses --      1.7405                 1.1335                 1.1732
 Frc consts  --      2.6764                 1.7688                 1.8520
 IR Inten    --     83.5031               110.9510                26.7907

                     85                     86                     87
                      A                      A                      A
 Frequencies --   1659.4860              1685.1405              1700.2818
 Red. masses --      1.1198                 1.1298                 4.7807
 Frc consts  --      1.8169                 1.8903                 8.1431
 IR Inten    --      6.7875                 5.8647                 7.0212

                     88                     89                     90
                      A                      A                      A
 Frequencies --   1717.9727              2841.1645              2928.2841
 Red. masses --      2.4122                 1.1064                 1.0821
 Frc consts  --      4.1946                 5.2618                 5.4670
 IR Inten    --      7.1179              3232.0380                49.0545

                     91                     92                     93
                      A                      A                      A
 Frequencies --   2954.6584              2961.6487              3085.8361
 Red. masses --      1.0716                 1.0571                 1.0621
 Frc consts  --      5.5119                 5.4630                 5.9587
 IR Inten    --     46.1970                93.9313                18.2495

                     94                     95                     96
                      A                      A                      A
 Frequencies --   3090.4768              3101.0609              3120.8064
 Red. masses --      1.0804                 1.0651                 1.0896
 Frc consts  --      6.0799                 6.0350                 6.2524
 IR Inten    --     29.2609                20.9263                24.0096

                     97                     98                     99
                      A                      A                      A
 Frequencies --   3136.0150              3146.2641              3160.2584
 Red. masses --      1.1053                 1.1015                 1.1061
 Frc consts  --      6.4047                 6.4243                 6.5085
 IR Inten    --      3.5816                17.4057                23.0886

                    100                    101                    102
                      A                      A                      A
 Frequencies --   3222.9760              3235.2182              3244.7672
 Red. masses --      1.0920                 1.0953                 1.0927
 Frc consts  --      6.6832                 6.7545                 6.7780
 IR Inten    --      1.0665                 1.3058                 2.6574

                    103                    104                    105
                      A                      A                      A
 Frequencies --   3258.4551              3304.5063              3490.1906
 Red. masses --      1.1006                 1.0654                 1.0626
 Frc consts  --      6.8850                 6.8545                 7.6262
 IR Inten    --      1.1682              1682.0859               881.5005

                    106                    107                    108
                      A                      A                      A
 Frequencies --   3651.1547              3880.7141              3951.7417
 Red. masses --      1.0594                 1.0451                 1.0675
 Frc consts  --      8.3207                 9.2736                 9.8220
 IR Inten    --    539.5287                24.3451               117.6300

                    109                    110                    111
                      A                      A                      A
 Frequencies --   3952.9273              3954.1213              3988.2606
 Red. masses --      1.0674                 1.0692                 1.0830
 Frc consts  --      9.8270                 9.8492                10.1498
 IR Inten    --     24.2473               137.4786               110.9463

 - Thermochemistry -
 -------------------
 Temperature   298.150 Kelvin.  Pressure   1.00000 Atm.
 Atom     1 has atomic number  6 and mass  12.00000

 Molecular mass:   235.16578 amu.
 Principal axes and moments of inertia in atomic units:
                           1         2         3
     Eigenvalues --  1981.10543********************
           X            1.00000  -0.00084  -0.00168
           Y            0.00082   0.99991  -0.01338
           Z            0.00169   0.01337   0.99991
 This molecule is an asymmetric top.
 Rotational symmetry number  1.
 Warning -- assumption of classical behavior for rotation
           may cause significant error
 Rotational temperatures (Kelvin)      0.04372     0.00543     0.00533
 Rotational constants (GHZ):           0.91098     0.11320     0.11108
 Zero-point vibrational energy     893105.1 (Joules/Mol)
                                  213.45723 (Kcal/Mol)
 Warning -- explicit consideration of  34 degrees of freedom as
           vibrations may cause significant error
 Vibrational temperatures:      6.38     9.87    21.29    24.93    41.04
          (Kelvin)             49.00    52.13    61.63    83.78   128.11
                              141.14   156.38   217.46   227.54   264.96
                              269.59   290.50   303.90   318.98   347.68
                              353.05   375.92   382.82   411.55   443.93
                              516.68   532.57   596.91   598.26   600.76
                              685.86   779.39   831.61   861.10   914.61
                              929.44   961.09  1023.53  1046.43  1114.75
                             1206.41  1219.76  1227.82  1329.05  1346.04
                             1364.38  1370.50  1393.04  1416.38  1440.40
                             1501.24  1502.72  1526.21  1554.61  1562.07
                             1600.03  1635.58  1637.91  1723.93  1735.83
                             1755.26  1789.71  1800.77  1808.53  1828.36
                             1858.97  1877.74  1903.17  1912.20  1939.99
                             1950.63  1983.72  2000.16  2073.46  2091.48
                             2125.73  2135.64  2142.99  2163.21  2180.41
                             2189.15  2324.34  2341.49  2355.03  2387.63
                             2424.54  2446.33  2471.78  4087.80  4213.15
                             4251.09  4261.15  4439.83  4446.51  4461.74
                             4490.14  4512.03  4526.77  4546.91  4637.14
                             4654.76  4668.50  4688.19  4754.45  5021.61
                             5253.20  5583.48  5685.67  5687.38  5689.10
                             5738.22

 Zero-point correction=                           0.340166 (Hartree/Particle)
 Thermal correction to Energy=                    0.364005
 Thermal correction to Enthalpy=                  0.364949
 Thermal correction to Gibbs Free Energy=         0.277770
 Sum of electronic and zero-point Energies=           -804.682059
 Sum of electronic and thermal Energies=              -804.658219
 Sum of electronic and thermal Enthalpies=            -804.657275
 Sum of electronic and thermal Free Energies=         -804.744454

                     E (Thermal)             CV                S
                      KCal/Mol        Cal/Mol-Kelvin    Cal/Mol-Kelvin
 Total                  228.416             80.358            183.484
 Electronic               0.000              0.000              0.000
 Translational            0.889              2.981             42.267
 Rotational               0.889              2.981             34.594
 Vibrational            226.639             74.396            106.623
 Vibration     1          0.593              1.987              9.626
 Vibration     2          0.593              1.987              8.760
 Vibration     3          0.593              1.986              7.233
 Vibration     4          0.593              1.986              6.919
 Vibration     5          0.593              1.984              5.929
 Vibration     6          0.594              1.983              5.578
 Vibration     7          0.594              1.982              5.455
 Vibration     8          0.595              1.980              5.124
 Vibration     9          0.596              1.974              4.516
 Vibration    10          0.602              1.957              3.681
 Vibration    11          0.604              1.951              3.492
 Vibration    12          0.606              1.942              3.292
 Vibration    13          0.619              1.901              2.658
 Vibration    14          0.621              1.893              2.572
 Vibration    15          0.631              1.861              2.286
 Vibration    16          0.632              1.857              2.254
 Vibration    17          0.639              1.837              2.116
 Vibration    18          0.643              1.824              2.033
 Vibration    19          0.648              1.808              1.945
 Vibration    20          0.658              1.777              1.791
 Vibration    21          0.660              1.770              1.764
 Vibration    22          0.669              1.744              1.653
 Vibration    23          0.672              1.735              1.622
 Vibration    24          0.684              1.700              1.497
 Vibration    25          0.698              1.657              1.370
 Vibration    26          0.734              1.557              1.126
 Vibration    27          0.742              1.534              1.079
 Vibration    28          0.778              1.438              0.910
 Vibration    29          0.779              1.436              0.906
 Vibration    30          0.781              1.432              0.900
 Vibration    31          0.833              1.302              0.719
 Vibration    32          0.897              1.158              0.562
 Vibration    33          0.935              1.079              0.489
 Vibration    34          0.956              1.035              0.452

 Optimization completed on the basis of negligible forces.
    -- Stationary point found.
 Normal termination of Gaussian 16 at Fri Jan 27 21:22:54 2023.
