 Gaussian 16, Revision A.03,
 Gaussian 16:  ES64L-G16RevA.03 25-Dec-2016

 ------------------------------------------------
 # wB97XD/aug-cc-pVDZ Opt=(CalcFC,ReCalc=50) Freq
 ------------------------------------------------

 ----------------------------
 p-Pyr Nicotine, N anti, 4H2O
 ----------------------------
 Symbolic Z-matrix:
 Charge =  1 Multiplicity = 1

 SCF Done:  E(RwB97XD) =  -805.043105992     A.U. after   15 cycles
 SCF Done:  E(RwB97XD) =  -805.044813796     A.U. after   12 cycles
 SCF Done:  E(RwB97XD) =  -805.045118907     A.U. after   15 cycles
 SCF Done:  E(RwB97XD) =  -805.045217283     A.U. after   13 cycles
 SCF Done:  E(RwB97XD) =  -805.045299213     A.U. after   12 cycles
 SCF Done:  E(RwB97XD) =  -805.045322632     A.U. after   11 cycles
 SCF Done:  E(RwB97XD) =  -805.045349291     A.U. after   13 cycles
 SCF Done:  E(RwB97XD) =  -805.045311015     A.U. after   13 cycles
 SCF Done:  E(RwB97XD) =  -805.045358904     A.U. after   12 cycles
 SCF Done:  E(RwB97XD) =  -805.045358319     A.U. after   12 cycles
 SCF Done:  E(RwB97XD) =  -805.045360671     A.U. after   11 cycles
 SCF Done:  E(RwB97XD) =  -805.045360669     A.U. after    9 cycles
 SCF Done:  E(RwB97XD) =  -805.045360725     A.U. after   10 cycles
 Optimization completed.
    -- Stationary point found.
 Normal termination of Gaussian 16 at Sat Aug  1 10:30:21 2020.

 ----------------------------------------------------------------------
 #N Geom=AllCheck Guess=TCheck SCRF=Check GenChk RwB97XD/Aug-CC-pVDZ Fr
 eq
 ----------------------------------------------------------------------

 Structure from the checkpoint file:  "NicPyrNa4h7.chk"
 ----------------------------
 p-Pyr Nicotine, N anti, 4H2O
 ----------------------------
 Charge =  1 Multiplicity = 1

                         Standard orientation:
 ---------------------------------------------------------------------
 Center     Atomic      Atomic             Coordinates (Angstroms)
 Number     Number       Type             X           Y           Z
 ---------------------------------------------------------------------
      1          7           0        1.906654   -0.062295    0.721862
      2          6           0        1.618006    0.923965   -0.379619
      3          6           0        2.014972    0.134681   -1.632184
      4          6           0        3.175109   -0.784271   -1.179395
      5          6           0        3.224056   -0.658909    0.351555
      6          6           0        0.211465    1.460686   -0.316728
      7          6           0       -0.883790    0.631859   -0.559798
      8          7           0       -2.150910    1.041658   -0.483130
      9          6           0       -2.385817    2.322078   -0.178351
     10          6           0       -1.364852    3.236595    0.063432
     11          6           0       -0.047051    2.794259    0.001116
     12          8           0        0.354216   -2.208081    0.755704
     13          8           0       -1.101806   -2.622160   -1.534365
     14          8           0       -3.343578   -1.404566   -0.409870
     15          1           0        4.005945    0.033236    0.686919
     16          1           0        4.132050   -0.481184   -1.614814
     17          1           0        2.989517   -1.820144   -1.479094
     18          1           0        1.165433   -0.459151   -1.988010
     19          1           0        2.298225    0.817591   -2.438379
     20          1           0        3.335414   -1.610061    0.880105
     21          1           0        2.324825    1.750898   -0.219713
     22          1           0       -0.741149   -0.414743   -0.827428
     23          1           0       -3.431383    2.625835   -0.126280
     24          1           0       -1.601572    4.271700    0.301104
     25          1           0        0.773726    3.486299    0.194979
     26          6           0        1.845573    0.488360    2.089691
     27          1           0        1.201631   -0.862365    0.672143
     28          1           0       -0.427120   -2.107617    1.340418
     29          1           0       -0.034026   -2.534690   -0.079079
     30          1           0       -3.145868   -0.440871   -0.525419
     31          1           0       -4.272499   -1.530365   -0.617944
     32          1           0       -2.001708   -2.351897   -1.271052
     33          1           0       -1.199646   -3.397078   -2.092438
     34          8           0       -1.980795   -1.662626    2.023221
     35          1           0       -2.624928   -1.646503    1.291830
     36          1           0       -2.395264   -2.151335    2.738155
     37          1           0        2.559430    1.314526    2.182712
     38          1           0        2.099473   -0.305853    2.798015
     39          1           0        0.828961    0.841880    2.286318
 ---------------------------------------------------------------------

 SCF Done:  E(RwB97XD) =  -805.045360725     A.U. after    2 cycles

 The electronic state is 1-A.
 Alpha  occ. eigenvalues --  -19.39527 -19.38819 -19.38365 -19.37675 -14.67521
 Alpha  occ. eigenvalues --  -14.58835 -10.49263 -10.47543 -10.47350 -10.46550
 Alpha  occ. eigenvalues --  -10.46455 -10.45178 -10.45122 -10.43583 -10.43427
 Alpha  occ. eigenvalues --  -10.43163  -1.24798  -1.24201  -1.22956  -1.22742
 Alpha  occ. eigenvalues --   -1.21252  -1.18455  -1.06207  -1.03971  -1.01243
 Alpha  occ. eigenvalues --   -0.96580  -0.93657  -0.88473  -0.85901  -0.84777
 Alpha  occ. eigenvalues --   -0.82722  -0.77727  -0.75569  -0.74360  -0.74015
 Alpha  occ. eigenvalues --   -0.73565  -0.72933  -0.72643  -0.71645  -0.69131
 Alpha  occ. eigenvalues --   -0.68954  -0.66327  -0.64929  -0.64691  -0.63333
 Alpha  occ. eigenvalues --   -0.62706  -0.62303  -0.61807  -0.61032  -0.60621
 Alpha  occ. eigenvalues --   -0.59924  -0.59492  -0.58524  -0.57249  -0.56581
 Alpha  occ. eigenvalues --   -0.56409  -0.54602  -0.53196  -0.51974  -0.51615
 Alpha  occ. eigenvalues --   -0.51203  -0.49955  -0.48368  -0.46793
 Alpha virt. eigenvalues --   -0.09756  -0.08673  -0.06374  -0.05710  -0.04795
 Alpha virt. eigenvalues --   -0.04549  -0.03621  -0.03210  -0.03137  -0.02566
 Alpha virt. eigenvalues --   -0.02106  -0.01617  -0.01307  -0.00750  -0.00540

 Mulliken charges:
               1
     1  N   -1.111713
     2  C    1.012419
     3  C    1.076800
     4  C    0.754845
     5  C    1.260684
     6  C    0.925744
     7  C    1.092151
     8  N   -0.444593
     9  C    0.245841
    10  C    0.585173
    11  C    1.206565
    12  O   -0.482640
    13  O   -0.384364
    14  O   -0.695003
    15  H   -0.493377
    16  H   -0.231531
    17  H   -0.254382
    18  H   -0.322515
    19  H   -0.512062
    20  H   -0.492049
    21  H   -0.941216
    22  H   -1.275657
    23  H   -0.608560
    24  H   -0.623058
    25  H   -0.905522
    26  C    1.036439
    27  H    0.232508
    28  H    0.314855
    29  H    0.228384
    30  H    0.365511
    31  H    0.277523
    32  H    0.217363
    33  H    0.199118
    34  O   -0.329508
    35  H    0.200266
    36  H    0.165564
    37  H   -0.137409
    38  H   -0.098086
    39  H   -0.054509
 Sum of Mulliken charges =   1.00000

 Dipole moment (field-independent basis, Debye):
    X=              1.1755    Y=              0.8495    Z=              0.7780  Tot=              1.6459
 Quadrupole moment (field-independent basis, Debye-Ang):
   XX=            -49.5223   YY=            -69.9734   ZZ=            -84.5216
   XY=              7.3602   XZ=              1.7867   YZ=              4.7078

  Exact polarizability: 180.956  -9.504 166.573   0.102   7.424 131.757
 Approx polarizability: 189.833  -2.896 183.118   0.976   9.812 147.849

                      1                      2                      3
                      A                      A                      A
 Frequencies --     28.7569                31.6790                48.3425
 Red. masses --      4.3875                 4.0298                 2.2083
 Frc consts  --      0.0021                 0.0024                 0.0030
 IR Inten    --      0.5791                 1.0241                 0.8918

                      4                      5                      6
                      A                      A                      A
 Frequencies --     58.3130                60.7784                77.8252
 Red. masses --      3.9687                 4.1039                 5.2526
 Frc consts  --      0.0080                 0.0089                 0.0187
 IR Inten    --      0.8416                 0.9012                 3.4825

                      7                      8                      9
                      A                      A                      A
 Frequencies --     88.0544                97.0006               109.9136
 Red. masses --      4.9362                 5.7012                 4.6059
 Frc consts  --      0.0225                 0.0316                 0.0328
 IR Inten    --      4.1300                 1.0234                 4.8736

                     10                     11                     12
                      A                      A                      A
 Frequencies --    140.4963               184.9125               191.6275
 Red. masses --      2.3256                 5.4662                 4.4177
 Frc consts  --      0.0270                 0.1101                 0.0956
 IR Inten    --      2.0362                 6.0485                14.7226

                     13                     14                     15
                      A                      A                      A
 Frequencies --    202.7020               224.0024               229.8695
 Red. masses --      4.8123                 3.5765                 1.9663
 Frc consts  --      0.1165                 0.1057                 0.0612
 IR Inten    --     28.3406                 9.9507                 6.2347

                     16                     17                     18
                      A                      A                      A
 Frequencies --    233.9667               234.3921               251.5918
 Red. masses --      1.4546                 1.4078                 3.4514
 Frc consts  --      0.0469                 0.0456                 0.1287
 IR Inten    --     28.5195                14.8034                59.0412

                     19                     20                     21
                      A                      A                      A
 Frequencies --    259.2462               269.3949               309.7350
 Red. masses --      2.8416                 1.2550                 4.5062
 Frc consts  --      0.1125                 0.0537                 0.2547
 IR Inten    --      1.5043                49.0206                 1.8776

                     22                     23                     24
                      A                      A                      A
 Frequencies --    328.4858               346.2312               388.8411
 Red. masses --      4.3108                 1.0596                 2.9490
 Frc consts  --      0.2741                 0.0748                 0.2627
 IR Inten    --      1.9172                 6.5217                 0.2331

                     25                     26                     27
                      A                      A                      A
 Frequencies --    415.4020               441.9642               451.8890
 Red. masses --      3.0216                 3.0418                 1.0898
 Frc consts  --      0.3072                 0.3501                 0.1311
 IR Inten    --      2.3552                13.2807                70.7123

                     28                     29                     30
                      A                      A                      A
 Frequencies --    489.3496               538.7091               560.0219
 Red. masses --      1.0777                 3.6987                 1.8779
 Frc consts  --      0.1521                 0.6324                 0.3470
 IR Inten    --    164.7654                 0.8484                 4.7048

                     31                     32                     33
                      A                      A                      A
 Frequencies --    570.4958               603.7314               636.9305
 Red. masses --      1.3533                 1.1428                 3.4254
 Frc consts  --      0.2595                 0.2454                 0.8187
 IR Inten    --      8.2315                72.5821                 7.9314

                     34                     35                     36
                      A                      A                      A
 Frequencies --    653.8302               679.9831               704.4147
 Red. masses --      5.6004                 5.3396                 1.0570
 Frc consts  --      1.4106                 1.4546                 0.3090
 IR Inten    --     15.7360                 0.4403                69.4483

                     37                     38                     39
                      A                      A                      A
 Frequencies --    711.7700               732.6529               759.8698
 Red. masses --      1.0671                 1.8273                 1.0671
 Frc consts  --      0.3185                 0.5779                 0.3630
 IR Inten    --    126.8006                62.1803                 6.4802

                     40                     41                     42
                      A                      A                      A
 Frequencies --    792.0396               819.0858               837.4664
 Red. masses --      1.2678                 2.0956                 1.7531
 Frc consts  --      0.4686                 0.8284                 0.7244
 IR Inten    --      3.3860                 6.9709                24.9107

                     43                     44                     45
                      A                      A                      A
 Frequencies --    855.0633               903.1123               921.2891
 Red. masses --      1.0997                 1.1081                 2.8298
 Frc consts  --      0.4737                 0.5325                 1.4151
 IR Inten    --    244.6849                57.9667                 8.4711

                     46                     47                     48
                      A                      A                      A
 Frequencies --    934.9630               950.2144               975.8941
 Red. masses --      2.4558                 1.8930                 1.3959
 Frc consts  --      1.2648                 1.0070                 0.7833
 IR Inten    --      7.1836                 3.0791                 1.4614

                     49                     50                     51
                      A                      A                      A
 Frequencies --    988.0223              1001.3088              1028.8935
 Red. masses --      1.5771                 1.7901                 1.4324
 Frc consts  --      0.9071                 1.0575                 0.8934
 IR Inten    --      2.5645                 6.9410                 0.2602

                     52                     53                     54
                      A                      A                      A
 Frequencies --   1044.1390              1055.3652              1062.9352
 Red. masses --      1.8779                 5.0834                 2.6951
 Frc consts  --      1.2062                 3.3359                 1.7941
 IR Inten    --     13.9106                 9.0904                 7.2139

                     55                     56                     57
                      A                      A                      A
 Frequencies --   1092.1894              1109.3132              1136.2693
 Red. masses --      2.2191                 2.3222                 1.3048
 Frc consts  --      1.5596                 1.6837                 0.9925
 IR Inten    --      4.3545                 3.7091                 6.1105

                     58                     59                     60
                      A                      A                      A
 Frequencies --   1154.8782              1162.5823              1218.0316
 Red. masses --      1.4134                 2.8752                 1.7667
 Frc consts  --      1.1107                 2.2896                 1.5443
 IR Inten    --      6.8306                16.9914                 1.6000

                     61                     62                     63
                      A                      A                      A
 Frequencies --   1225.3735              1236.4125              1247.8091
 Red. masses --      1.4622                 1.6613                 1.3175
 Frc consts  --      1.2936                 1.4963                 1.2086
 IR Inten    --      6.8705                 4.4671                12.4117

                     64                     65                     66
                      A                      A                      A
 Frequencies --   1270.1855              1287.8928              1301.6880
 Red. masses --      1.5241                 1.2298                 1.5759
 Frc consts  --      1.4487                 1.2018                 1.5733
 IR Inten    --      2.5769                 3.8448                 1.1549

                     67                     68                     69
                      A                      A                      A
 Frequencies --   1317.5241              1336.8339              1369.3434
 Red. masses --      3.1913                 1.3980                 1.2502
 Frc consts  --      3.2639                 1.4720                 1.3812
 IR Inten    --      1.8715                 1.4209                 2.3346

                     70                     71                     72
                      A                      A                      A
 Frequencies --   1381.1299              1387.5440              1410.8826
 Red. masses --      1.4663                 1.4109                 1.5521
 Frc consts  --      1.6479                 1.6004                 1.8204
 IR Inten    --      2.1440                 4.4691                 1.4351

                     73                     74                     75
                      A                      A                      A
 Frequencies --   1453.1366              1482.4881              1483.5774
 Red. masses --      1.1846                 1.5574                 1.3102
 Frc consts  --      1.4737                 2.0166                 1.6990
 IR Inten    --      2.8349                26.6444                 8.2395

                     76                     77                     78
                      A                      A                      A
 Frequencies --   1486.9268              1490.2250              1500.9506
 Red. masses --      1.0487                 1.0781                 1.0971
 Frc consts  --      1.3661                 1.4106                 1.4562
 IR Inten    --      2.8351                 1.6743                21.3227

                     79                     80                     81
                      A                      A                      A
 Frequencies --   1518.5163              1535.0750              1542.4432
 Red. masses --      1.1423                 1.3086                 1.7454
 Frc consts  --      1.5519                 1.8169                 2.4466
 IR Inten    --     22.9898                49.9502                11.5460

                     82                     83                     84
                      A                      A                      A
 Frequencies --   1636.5911              1655.0662              1660.3883
 Red. masses --      1.1218                 1.1725                 1.7936
 Frc consts  --      1.7703                 1.8923                 2.9133
 IR Inten    --     22.6837                22.3134                11.7363

                     85                     86                     87
                      A                      A                      A
 Frequencies --   1663.4169              1676.7623              1689.8935
 Red. masses --      1.1755                 1.4968                 4.5754
 Frc consts  --      1.9163                 2.4794                 7.6984
 IR Inten    --    165.2708                54.0319                51.5023

                     88                     89                     90
                      A                      A                      A
 Frequencies --   1726.7533              2713.2935              3075.9955
 Red. masses --      1.0697                 1.0985                 1.0674
 Frc consts  --      1.8791                 4.7650                 5.9506
 IR Inten    --     41.1070              1355.2940                 2.7010

                     91                     92                     93
                      A                      A                      A
 Frequencies --   3078.2119              3098.8186              3103.0804
 Red. masses --      1.0509                 1.0629                 1.0641
 Frc consts  --      5.8669                 6.0136                 6.0371
 IR Inten    --      2.6804                 6.7226                 7.3053

                     94                     95                     96
                      A                      A                      A
 Frequencies --   3117.5856              3158.6377              3169.2448
 Red. masses --      1.0632                 1.1057                 1.1060
 Frc consts  --      6.0884                 6.4995                 6.5451
 IR Inten    --      9.7425                 0.9706                 2.3272

                     97                     98                     99
                      A                      A                      A
 Frequencies --   3179.6823              3180.5413              3189.8326
 Red. masses --      1.1073                 1.1066                 1.1069
 Frc consts  --      6.5960                 6.5953                 6.6356
 IR Inten    --      1.0327                 6.7656                 1.1838

                    100                    101                    102
                      A                      A                      A
 Frequencies --   3198.1048              3211.4940              3219.9288
 Red. masses --      1.0918                 1.0918                 1.0925
 Frc consts  --      6.5791                 6.6346                 6.6736
 IR Inten    --      3.8080                 6.7077                13.1011

                    103                    104                    105
                      A                      A                      A
 Frequencies --   3239.3203              3311.9601              3516.8131
 Red. masses --      1.0983                 1.0669                 1.0648
 Frc consts  --      6.7902                 6.8955                 7.7591
 IR Inten    --      4.0504              1184.0047               477.2138

                    106                    107                    108
                      A                      A                      A
 Frequencies --   3588.2967              3641.4748              3659.9712
 Red. masses --      1.0593                 1.0671                 1.0587
 Frc consts  --      8.0361                 8.3369                 8.3559
 IR Inten    --    319.2012               700.0195               378.2473

                    109                    110                    111
                      A                      A                      A
 Frequencies --   3934.6076              3942.1303              3944.4507
 Red. masses --      1.0670                 1.0696                 1.0704
 Frc consts  --      9.7323                 9.7937                 9.8120
 IR Inten    --    118.0199               140.8978               101.8504

 - Thermochemistry -
 -------------------
 Temperature   298.150 Kelvin.  Pressure   1.00000 Atm.
 Atom     1 has atomic number  7 and mass  14.00307

 Molecular mass:   235.16578 amu.
 Principal axes and moments of inertia in atomic units:
                           1         2         3
     Eigenvalues --  3558.580704555.501766055.78731
           X            0.99945   0.03322   0.00007
           Y           -0.03322   0.99933   0.01538
           Z            0.00044  -0.01537   0.99988
 This molecule is an asymmetric top.
 Rotational symmetry number  1.
 Warning -- assumption of classical behavior for rotation
           may cause significant error
 Rotational temperatures (Kelvin)      0.02434     0.01901     0.01430
 Rotational constants (GHZ):           0.50715     0.39617     0.29802
 Zero-point vibrational energy     908196.1 (Joules/Mol)
                                  217.06408 (Kcal/Mol)
 Warning -- explicit consideration of  32 degrees of freedom as
           vibrations may cause significant error
 Vibrational temperatures:     41.37    45.58    69.55    83.90    87.45
          (Kelvin)            111.97   126.69   139.56   158.14   202.14
                              266.05   275.71   291.64   322.29   330.73
                              336.63   337.24   361.98   373.00   387.60
                              445.64   472.62   498.15   559.46   597.67
                              635.89   650.17   704.06   775.08   805.75
                              820.82   868.63   916.40   940.72   978.34
                             1013.50  1024.08  1054.12  1093.28  1139.57
                             1178.48  1204.93  1230.25  1299.38  1325.53
                             1345.20  1367.15  1404.09  1421.54  1440.66
                             1480.35  1502.28  1518.44  1529.33  1571.42
                             1596.05  1634.84  1661.61  1672.70  1752.48
                             1763.04  1778.92  1795.32  1827.51  1852.99
                             1872.84  1895.62  1923.41  1970.18  1987.14
                             1996.37  2029.95  2090.74  2132.97  2134.54
                             2139.36  2144.10  2159.53  2184.81  2208.63
                             2219.23  2354.69  2381.27  2388.93  2393.29
                             2412.49  2431.38  2484.41  3903.82  4425.67
                             4428.86  4458.51  4464.64  4485.51  4544.58
                             4559.84  4574.85  4576.09  4589.46  4601.36
                             4620.62  4632.76  4660.66  4765.17  5059.91
                             5162.76  5239.27  5265.88  5661.02  5671.85
                             5675.18

 Zero-point correction=                           0.345914 (Hartree/Particle)
 Thermal correction to Energy=                    0.366908
 Thermal correction to Enthalpy=                  0.367852
 Thermal correction to Gibbs Free Energy=         0.295686
 Sum of electronic and zero-point Energies=           -804.699447
 Sum of electronic and thermal Energies=              -804.678453
 Sum of electronic and thermal Enthalpies=            -804.677509
 Sum of electronic and thermal Free Energies=         -804.749675

                     E (Thermal)             CV                S
                      KCal/Mol        Cal/Mol-Kelvin    Cal/Mol-Kelvin
 Total                  230.238             76.535            151.886
 Electronic               0.000              0.000              0.000
 Translational            0.889              2.981             42.267
 Rotational               0.889              2.981             32.951
 Vibrational            228.461             70.574             76.668
 Vibration     1          0.593              1.984              5.913
 Vibration     2          0.594              1.983              5.721
 Vibration     3          0.595              1.978              4.884
 Vibration     4          0.596              1.974              4.513
 Vibration     5          0.597              1.973              4.432
 Vibration     6          0.599              1.964              3.945
 Vibration     7          0.601              1.958              3.703
 Vibration     8          0.603              1.951              3.514
 Vibration     9          0.606              1.941              3.270
 Vibration    10          0.615              1.913              2.797
 Vibration    11          0.631              1.860              2.278
 Vibration    12          0.634              1.851              2.212
 Vibration    13          0.639              1.836              2.108
 Vibration    14          0.649              1.805              1.927
 Vibration    15          0.652              1.795              1.880
 Vibration    16          0.654              1.789              1.848
 Vibration    17          0.654              1.788              1.845
 Vibration    18          0.664              1.760              1.719
 Vibration    19          0.668              1.747              1.667
 Vibration    20          0.674              1.729              1.600
 Vibration    21          0.699              1.655              1.364
 Vibration    22          0.712              1.619              1.268
 Vibration    23          0.724              1.583              1.183
 Vibration    24          0.757              1.494              1.005
 Vibration    25          0.779              1.437              0.908
 Vibration    26          0.802              1.379              0.820
 Vibration    27          0.811              1.357              0.790
 Vibration    28          0.845              1.274              0.685
 Vibration    29          0.894              1.164              0.568
 Vibration    30          0.916              1.118              0.524
 Vibration    31          0.927              1.095              0.503
 Vibration    32          0.962              1.024              0.443

 Optimization completed.
    -- Stationary point found.
 Normal termination of Gaussian 16 at Sat Aug  1 11:45:52 2020.
