 Gaussian 16, Revision A.03,
 Gaussian 16:  ES64L-G16RevA.03 25-Dec-2016

 -----------------------------
 # wB97XD/aug-cc-pVDZ opt freq
 -----------------------------

 ----
 blah
 ----
 Symbolic Z-matrix:
 Charge =  1 Multiplicity = 1

 SCF Done:  E(RwB97XD) =  -805.021288176     A.U. after   14 cycles
 SCF Done:  E(RwB97XD) =  -805.021273685     A.U. after   12 cycles
 SCF Done:  E(RwB97XD) =  -805.021288064     A.U. after   11 cycles
 SCF Done:  E(RwB97XD) =  -805.021288901     A.U. after   11 cycles
 SCF Done:  E(RwB97XD) =  -805.021287708     A.U. after   11 cycles
 SCF Done:  E(RwB97XD) =  -805.021289203     A.U. after   11 cycles
 SCF Done:  E(RwB97XD) =  -805.021289733     A.U. after   11 cycles
 SCF Done:  E(RwB97XD) =  -805.021289542     A.U. after   11 cycles
 SCF Done:  E(RwB97XD) =  -805.021290033     A.U. after   11 cycles
 SCF Done:  E(RwB97XD) =  -805.021290106     A.U. after    8 cycles
 SCF Done:  E(RwB97XD) =  -805.021290465     A.U. after    8 cycles
 SCF Done:  E(RwB97XD) =  -805.021290571     A.U. after    9 cycles
 SCF Done:  E(RwB97XD) =  -805.021290620     A.U. after    9 cycles
 SCF Done:  E(RwB97XD) =  -805.021290691     A.U. after    8 cycles
 SCF Done:  E(RwB97XD) =  -805.021290825     A.U. after    9 cycles
 SCF Done:  E(RwB97XD) =  -805.021290867     A.U. after    9 cycles
 SCF Done:  E(RwB97XD) =  -805.021290883     A.U. after    8 cycles
 SCF Done:  E(RwB97XD) =  -805.021290898     A.U. after    8 cycles
 SCF Done:  E(RwB97XD) =  -805.021290903     A.U. after    7 cycles
 Optimization completed.
    -- Stationary point found.
 Normal termination of Gaussian 16 at Mon Jan 30 17:22:25 2023.

 ----------------------------------------------------------------------
 #N Geom=AllCheck Guess=TCheck SCRF=Check GenChk RwB97XD/Aug-CC-pVDZ Fr
 eq
 ----------------------------------------------------------------------

 Structure from the checkpoint file:  "/gscratch/scrubbed/gds001/Gau-10625.chk"
 ----
 blah
 ----
 Charge =  1 Multiplicity = 1

                         Standard orientation:
 ---------------------------------------------------------------------
 Center     Atomic      Atomic             Coordinates (Angstroms)
 Number     Number       Type             X           Y           Z
 ---------------------------------------------------------------------
      1          6           0       -1.995087   -2.336049   -0.597697
      2          6           0       -1.936614   -1.014319   -0.145376
      3          6           0       -0.736785   -0.579590    0.400679
      4          7           0        0.318983   -1.402963    0.478282
      5          6           0        0.284007   -2.669917    0.040929
      6          6           0       -0.882045   -3.170284   -0.510637
      7          6           0       -3.112733   -0.070391   -0.277645
      8          7           0       -3.018887    1.036830    0.665185
      9          6           0       -3.649942    2.192907    0.035166
     10          6           0       -3.154641    2.105209   -1.401890
     11          6           0       -3.194062    0.593009   -1.685315
     12          8           0        2.602746   -0.581408    1.475355
     13          8           0        4.356536    0.545239   -0.079206
     14          1           0       -3.350828    3.114399    0.549259
     15          1           0       -3.773082    2.677181   -2.101368
     16          1           0       -2.127257    2.485199   -1.464149
     17          1           0       -4.136754    0.309694   -2.167112
     18          1           0       -2.380056    0.268734   -2.343537
     19          1           0       -4.755944    2.123418    0.072678
     20          1           0       -4.031111   -0.665535   -0.104931
     21          1           0       -0.616515    0.430044    0.786330
     22          1           0        1.199240   -3.245972    0.152944
     23          1           0       -0.916511   -4.199263   -0.860680
     24          1           0       -2.924397   -2.717815   -1.022284
     25          6           0       -3.520111    0.726451    1.990789
     26          1           0        1.221135   -1.043138    0.903883
     27          1           0        2.877366   -0.518986    2.391531
     28          1           0        3.299886   -0.138086    0.917662
     29          1           0        5.189379    0.103266   -0.313180
     30          1           0        4.532699    1.500612   -0.069303
     31          8           0        4.757880    3.316225   -0.043598
     32          1           0        4.778030    3.841136   -0.848006
     33          1           0        5.303684    3.790150    0.589226
     34          1           0       -2.961996   -0.115993    2.421761
     35          1           0       -4.595032    0.459318    1.981865
     36          1           0       -3.383904    1.592886    2.648744
     37          8           0        6.702290   -0.815830   -0.768668
     38          1           0        7.004366   -0.927926   -1.673624
     39          1           0        7.479394   -0.936360   -0.217057
 ---------------------------------------------------------------------

 SCF Done:  E(RwB97XD) =  -805.021290903     A.U. after    1 cycles

 The electronic state is 1-A.
 Alpha  occ. eigenvalues --  -19.38878 -19.38795 -19.37628 -19.35168 -14.66042
 Alpha  occ. eigenvalues --  -14.54478 -10.49668 -10.48972 -10.46418 -10.45666
 Alpha  occ. eigenvalues --  -10.45618 -10.44429 -10.40940 -10.40920 -10.39927
 Alpha  occ. eigenvalues --  -10.38722  -1.24415  -1.23238  -1.23075  -1.22028
 Alpha  occ. eigenvalues --   -1.19149  -1.14903  -1.06808  -1.03093  -0.98596
 Alpha  occ. eigenvalues --   -0.94189  -0.89183  -0.87884  -0.86688  -0.81047
 Alpha  occ. eigenvalues --   -0.77923  -0.76990  -0.73595  -0.73555  -0.73521
 Alpha  occ. eigenvalues --   -0.73047  -0.72305  -0.71525  -0.69443  -0.68199
 Alpha  occ. eigenvalues --   -0.67635  -0.66251  -0.63171  -0.62966  -0.62455
 Alpha  occ. eigenvalues --   -0.61528  -0.60951  -0.59881  -0.58741  -0.57893
 Alpha  occ. eigenvalues --   -0.56450  -0.55546  -0.54825  -0.54522  -0.53711
 Alpha  occ. eigenvalues --   -0.51827  -0.51796  -0.51607  -0.51561  -0.51509
 Alpha  occ. eigenvalues --   -0.50507  -0.49072  -0.47641  -0.40460
 Alpha virt. eigenvalues --   -0.12719  -0.09272  -0.05859  -0.04889  -0.04072
 Alpha virt. eigenvalues --   -0.03958  -0.03366  -0.03156  -0.02471  -0.02048
 Alpha virt. eigenvalues --   -0.01852  -0.01221  -0.00934  -0.00646  -0.00182

 Mulliken charges:
               1
     1  C    1.169927
     2  C    0.730756
     3  C    0.725438
     4  N   -0.014589
     5  C    0.788626
     6  C    0.234540
     7  C    0.936829
     8  N   -0.415916
     9  C    1.197338
    10  C    0.582950
    11  C    0.965976
    12  O   -0.512585
    13  O   -0.391111
    14  H   -0.513465
    15  H   -0.270683
    16  H   -0.380064
    17  H   -0.365409
    18  H   -0.440874
    19  H   -0.450358
    20  H   -0.576533
    21  H   -0.989624
    22  H   -0.669492
    23  H   -0.559257
    24  H   -0.872189
    25  C    0.806091
    26  H    0.132831
    27  H    0.124842
    28  H    0.344598
    29  H    0.200605
    30  H    0.207538
    31  O   -0.317643
    32  H    0.146466
    33  H    0.147434
    34  H   -0.288580
    35  H   -0.173542
    36  H   -0.215773
    37  O   -0.317452
    38  H    0.145236
    39  H    0.147118
 Sum of Mulliken charges =   1.00000

 Dipole moment (field-independent basis, Debye):
    X=              6.0049    Y=             -1.4569    Z=             -0.4275  Tot=              6.1939
 Quadrupole moment (field-independent basis, Debye-Ang):
   XX=              5.9130   YY=            -57.8843   ZZ=            -84.3784
   XY=             13.2485   XZ=             -0.5494   YZ=              2.0567

  Exact polarizability: 178.075 -16.880 175.902   7.207   5.956 139.418
 Approx polarizability: 183.716  -6.410 185.021  11.135   9.968 154.452

                      1                      2                      3
                      A                      A                      A
 Frequencies --      6.7413                 8.1709                15.6471
 Red. masses --      4.8669                 5.2104                 3.3430
 Frc consts  --      0.0001                 0.0002                 0.0005
 IR Inten    --      0.2006                 0.4412                 0.4044

                      4                      5                      6
                      A                      A                      A
 Frequencies --     19.0192                27.5838                29.7186
 Red. masses --      3.1747                 4.5754                 4.4123
 Frc consts  --      0.0007                 0.0021                 0.0023
 IR Inten    --      0.8478                 0.9034                 0.3863

                      7                      8                      9
                      A                      A                      A
 Frequencies --     40.3604                50.7454                52.9227
 Red. masses --      5.1910                 7.0777                 5.7835
 Frc consts  --      0.0050                 0.0107                 0.0095
 IR Inten    --      3.4884                 2.6867                 6.7467

                     10                     11                     12
                      A                      A                      A
 Frequencies --     81.0633                92.6153               102.0443
 Red. masses --      1.0842                 3.0192                 1.0273
 Frc consts  --      0.0042                 0.0153                 0.0063
 IR Inten    --      2.3133                 2.5301                31.0588

                     13                     14                     15
                      A                      A                      A
 Frequencies --    119.9059               136.1516               163.1125
 Red. masses --      3.7399                 1.1218                 4.2577
 Frc consts  --      0.0317                 0.0123                 0.0667
 IR Inten    --      3.8395               170.4297                17.9154

                     16                     17                     18
                      A                      A                      A
 Frequencies --    167.9530               177.4629               199.9053
 Red. masses --      2.3888                 1.3412                 1.1571
 Frc consts  --      0.0397                 0.0249                 0.0272
 IR Inten    --     70.8653               123.7558               164.4523

                     19                     20                     21
                      A                      A                      A
 Frequencies --    208.7402               221.5178               227.0185
 Red. masses --      1.6554                 1.1715                 1.1359
 Frc consts  --      0.0425                 0.0339                 0.0345
 IR Inten    --      0.2609                 8.3902                26.5266

                     22                     23                     24
                      A                      A                      A
 Frequencies --    232.8894               243.7413               247.5903
 Red. masses --      3.7741                 2.0658                 1.8038
 Frc consts  --      0.1206                 0.0723                 0.0651
 IR Inten    --     48.1966                16.2674                16.6181

                     25                     26                     27
                      A                      A                      A
 Frequencies --    276.6936               297.4124               356.5032
 Red. masses --      2.9217                 3.6639                 2.8210
 Frc consts  --      0.1318                 0.1909                 0.2112
 IR Inten    --      3.0983                 2.0873                12.1319

                     28                     29                     30
                      A                      A                      A
 Frequencies --    372.7696               417.6750               429.4154
 Red. masses --      5.2476                 3.0410                 3.1786
 Frc consts  --      0.4296                 0.3126                 0.3453
 IR Inten    --     20.3168                 1.7420                 0.9808

                     31                     32                     33
                      A                      A                      A
 Frequencies --    532.4566               557.3755               583.0257
 Red. masses --      3.1355                 1.0403                 1.9897
 Frc consts  --      0.5237                 0.1904                 0.3985
 IR Inten    --      1.5357                17.1228                 6.1196

                     34                     35                     36
                      A                      A                      A
 Frequencies --    596.4384               623.2194               644.6213
 Red. masses --      1.3601                 3.8599                 4.9387
 Frc consts  --      0.2851                 0.8833                 1.2091
 IR Inten    --     21.1846                14.8403                18.8255

                     37                     38                     39
                      A                      A                      A
 Frequencies --    658.4720               709.9050               714.7458
 Red. masses --      3.3758                 1.0303                 2.0181
 Frc consts  --      0.8624                 0.3059                 0.6074
 IR Inten    --      3.5980                10.5251                31.7500

                     40                     41                     42
                      A                      A                      A
 Frequencies --    732.7545               778.8980               837.4486
 Red. masses --      1.0646                 2.5125                 1.4986
 Frc consts  --      0.3368                 0.8981                 0.6192
 IR Inten    --    199.8636                 7.8690                32.9383

                     43                     44                     45
                      A                      A                      A
 Frequencies --    870.7876               904.9535               938.2034
 Red. masses --      2.0585                 1.8083                 3.1928
 Frc consts  --      0.9196                 0.8725                 1.6559
 IR Inten    --      4.9964                 7.9160                 7.0660

                     46                     47                     48
                      A                      A                      A
 Frequencies --    964.2702               975.1409               981.0434
 Red. masses --      1.9892                 1.9581                 1.3011
 Frc consts  --      1.0898                 1.0970                 0.7378
 IR Inten    --      3.8024                 5.9421                 8.4664

                     49                     50                     51
                      A                      A                      A
 Frequencies --    988.7775               995.3260              1033.5236
 Red. masses --      1.0875                 1.5669                 1.3834
 Frc consts  --      0.6264                 0.9146                 0.8706
 IR Inten    --     65.9222                 4.1455                 0.2616

                     52                     53                     54
                      A                      A                      A
 Frequencies --   1042.4526              1063.5936              1078.3726
 Red. masses --      3.6210                 2.0912                 1.7561
 Frc consts  --      2.3184                 1.3938                 1.2032
 IR Inten    --      3.5530                 6.1775                16.1246

                     55                     56                     57
                      A                      A                      A
 Frequencies --   1084.7622              1106.1557              1136.9408
 Red. masses --      2.1833                 1.8743                 1.2679
 Frc consts  --      1.5137                 1.3512                 0.9656
 IR Inten    --      2.7784                 9.0145                 5.5704

                     58                     59                     60
                      A                      A                      A
 Frequencies --   1141.6412              1181.7387              1205.9028
 Red. masses --      1.5004                 1.4246                 1.1670
 Frc consts  --      1.1522                 1.1721                 0.9999
 IR Inten    --      4.1698                 6.2160                10.0233

                     61                     62                     63
                      A                      A                      A
 Frequencies --   1214.7080              1233.2121              1255.9782
 Red. masses --      1.6537                 1.9602                 1.7535
 Frc consts  --      1.4377                 1.7564                 1.6298
 IR Inten    --      4.3027                17.2857                12.6848

                     64                     65                     66
                      A                      A                      A
 Frequencies --   1265.8868              1273.0853              1283.7859
 Red. masses --      1.0853                 1.5605                 2.0010
 Frc consts  --      1.0247                 1.4902                 1.9431
 IR Inten    --     28.6928                 6.6577                31.3306

                     67                     68                     69
                      A                      A                      A
 Frequencies --   1298.8266              1307.5095              1339.5172
 Red. masses --      1.4672                 1.3403                 1.5495
 Frc consts  --      1.4583                 1.3500                 1.6381
 IR Inten    --     10.5631                 0.6198                 8.1799

                     70                     71                     72
                      A                      A                      A
 Frequencies --   1347.8263              1362.5997              1375.9272
 Red. masses --      1.4795                 2.8242                 1.6793
 Frc consts  --      1.5835                 3.0895                 1.8732
 IR Inten    --      1.1228                18.6843                14.5005

                     73                     74                     75
                      A                      A                      A
 Frequencies --   1391.7726              1431.9531              1453.5298
 Red. masses --      1.7149                 1.7657                 1.2179
 Frc consts  --      1.9571                 2.1332                 1.5160
 IR Inten    --     11.2282                42.2996                 5.6369

                     76                     77                     78
                      A                      A                      A
 Frequencies --   1477.9556              1483.8362              1490.8078
 Red. masses --      1.0476                 1.0834                 1.0712
 Frc consts  --      1.3482                 1.4055                 1.4027
 IR Inten    --     11.3479                 7.2893                 8.6660

                     79                     80                     81
                      A                      A                      A
 Frequencies --   1500.4850              1511.3038              1520.2354
 Red. masses --      1.0918                 2.2026                 1.1451
 Frc consts  --      1.4482                 2.9641                 1.5593
 IR Inten    --      7.6916                28.3197                 0.8364

                     82                     83                     84
                      A                      A                      A
 Frequencies --   1619.0663              1624.3355              1631.8305
 Red. masses --      1.5763                 1.2891                 1.0860
 Frc consts  --      2.4346                 2.0040                 1.7039
 IR Inten    --     55.2873               125.8901                47.9356

                     85                     86                     87
                      A                      A                      A
 Frequencies --   1644.4600              1683.8477              1697.3633
 Red. masses --      1.1160                 1.1773                 3.7050
 Frc consts  --      1.7781                 1.9667                 6.2891
 IR Inten    --      8.6384                 3.4878                 7.3976

                     88                     89                     90
                      A                      A                      A
 Frequencies --   1715.9569              2814.2638              2959.3999
 Red. masses --      2.8098                 1.1072                 1.0783
 Frc consts  --      4.8747                 5.1667                 5.5640
 IR Inten    --      8.7200              3323.6788                32.3001

                     91                     92                     93
                      A                      A                      A
 Frequencies --   2963.6032              2972.1225              3087.6538
 Red. masses --      1.0761                 1.0548                 1.0678
 Frc consts  --      5.5688                 5.4895                 5.9980
 IR Inten    --     48.7476                79.7506                17.4378

                     94                     95                     96
                      A                      A                      A
 Frequencies --   3087.7235              3093.9861              3115.9181
 Red. masses --      1.0778                 1.0640                 1.0911
 Frc consts  --      6.0544                 6.0009                 6.2414
 IR Inten    --     27.7844                20.4058                25.7107

                     97                     98                     99
                      A                      A                      A
 Frequencies --   3140.8571              3141.7159              3158.8552
 Red. masses --      1.1049                 1.1020                 1.1052
 Frc consts  --      6.4219                 6.4084                 6.4976
 IR Inten    --      6.8240                19.6139                25.7485

                    100                    101                    102
                      A                      A                      A
 Frequencies --   3205.0720              3208.6530              3244.0949
 Red. masses --      1.0676                 1.0922                 1.0926
 Frc consts  --      6.4612                 6.6252                 6.7746
 IR Inten    --   1476.4731                 4.1873                 1.4141

                    103                    104                    105
                      A                      A                      A
 Frequencies --   3251.5749              3258.8307              3678.8086
 Red. masses --      1.0947                 1.1006                 1.0451
 Frc consts  --      6.8193                 6.8866                 8.3334
 IR Inten    --      8.0866                 1.3708               306.9710

                    106                    107                    108
                      A                      A                      A
 Frequencies --   3739.1602              3878.2750              3880.1019
 Red. masses --      1.0862                 1.0453                 1.0453
 Frc consts  --      8.9477                 9.2634                 9.2718
 IR Inten    --    870.9562                17.9617                21.5612

                    109                    110                    111
                      A                      A                      A
 Frequencies --   3960.0265              3985.0566              3987.5466
 Red. masses --      1.0667                 1.0828                 1.0829
 Frc consts  --      9.8561                10.1310                10.1446
 IR Inten    --     87.2272                89.7410               118.2887

 - Thermochemistry -
 -------------------
 Temperature   298.150 Kelvin.  Pressure   1.00000 Atm.
 Atom     1 has atomic number  6 and mass  12.00000

 Molecular mass:   235.16578 amu.
 Principal axes and moments of inertia in atomic units:
                           1         2         3
     Eigenvalues --  3457.30037********************
           X            1.00000  -0.00267  -0.00123
           Y            0.00267   1.00000   0.00140
           Z            0.00122  -0.00140   1.00000
 This molecule is an asymmetric top.
 Rotational symmetry number  1.
 Warning -- assumption of classical behavior for rotation
           may cause significant error
 Rotational temperatures (Kelvin)      0.02505     0.00812     0.00689
 Rotational constants (GHZ):           0.52201     0.16922     0.14360
 Zero-point vibrational energy     890840.7 (Joules/Mol)
                                  212.91604 (Kcal/Mol)
 Warning -- explicit consideration of  34 degrees of freedom as
           vibrations may cause significant error
 Vibrational temperatures:      9.70    11.76    22.51    27.36    39.69
          (Kelvin)             42.76    58.07    73.01    76.14   116.63
                              133.25   146.82   172.52   195.89   234.68
                              241.65   255.33   287.62   300.33   318.71
                              326.63   335.08   350.69   356.23   398.10
                              427.91   512.93   536.33   600.94   617.83
                              766.09   801.94   838.84   858.14   896.67
                              927.47   947.39  1021.39  1028.36  1054.27
                             1120.66  1204.90  1252.87  1302.03  1349.87
                             1387.37  1403.01  1411.50  1422.63  1432.05
                             1487.01  1499.86  1530.27  1551.54  1560.73
                             1591.51  1635.80  1642.57  1700.26  1735.03
                             1747.69  1774.32  1807.07  1821.33  1831.69
                             1847.08  1868.72  1881.21  1927.27  1939.22
                             1960.48  1979.65  2002.45  2060.26  2091.31
                             2126.45  2134.91  2144.94  2158.86  2174.43
                             2187.28  2329.48  2337.06  2347.84  2366.01
                             2422.68  2442.13  2468.88  4049.10  4257.92
                             4263.96  4276.22  4442.45  4442.55  4451.56
                             4483.11  4518.99  4520.23  4544.89  4611.38
                             4616.54  4667.53  4678.29  4688.73  5292.99
                             5379.82  5579.97  5582.60  5697.59  5733.61
                             5737.19

 Zero-point correction=                           0.339303 (Hartree/Particle)
 Thermal correction to Energy=                    0.363730
 Thermal correction to Enthalpy=                  0.364674
 Thermal correction to Gibbs Free Energy=         0.276569
 Sum of electronic and zero-point Energies=           -804.681988
 Sum of electronic and thermal Energies=              -804.657561
 Sum of electronic and thermal Enthalpies=            -804.656617
 Sum of electronic and thermal Free Energies=         -804.744722

                     E (Thermal)             CV                S
                      KCal/Mol        Cal/Mol-Kelvin    Cal/Mol-Kelvin
 Total                  228.244             81.104            185.433
 Electronic               0.000              0.000              0.000
 Translational            0.889              2.981             42.267
 Rotational               0.889              2.981             34.493
 Vibrational            226.467             75.143            108.673
 Vibration     1          0.593              1.987              8.795
 Vibration     2          0.593              1.987              8.412
 Vibration     3          0.593              1.986              7.122
 Vibration     4          0.593              1.986              6.734
 Vibration     5          0.593              1.984              5.996
 Vibration     6          0.594              1.984              5.848
 Vibration     7          0.594              1.981              5.241
 Vibration     8          0.595              1.977              4.788
 Vibration     9          0.596              1.976              4.705
 Vibration    10          0.600              1.962              3.865
 Vibration    11          0.602              1.954              3.604
 Vibration    12          0.604              1.948              3.415
 Vibration    13          0.609              1.933              3.102
 Vibration    14          0.614              1.917              2.857
 Vibration    15          0.623              1.888              2.513
 Vibration    16          0.625              1.882              2.458
 Vibration    17          0.628              1.870              2.355
 Vibration    18          0.638              1.840              2.134
 Vibration    19          0.642              1.827              2.055
 Vibration    20          0.648              1.808              1.947
 Vibration    21          0.651              1.800              1.902
 Vibration    22          0.654              1.791              1.857
 Vibration    23          0.659              1.773              1.775
 Vibration    24          0.661              1.767              1.748
 Vibration    25          0.678              1.717              1.554
 Vibration    26          0.691              1.679              1.431
 Vibration    27          0.732              1.562              1.137
 Vibration    28          0.744              1.528              1.068
 Vibration    29          0.781              1.432              0.900
 Vibration    30          0.791              1.406              0.861
 Vibration    31          0.887              1.178              0.582
 Vibration    32          0.913              1.124              0.529
 Vibration    33          0.940              1.068              0.480
 Vibration    34          0.954              1.039              0.456

                           ! Non-Optimized Parameters !
 Normal termination of Gaussian 16 at Mon Jan 30 18:13:02 2023.
