 Gaussian 16, Revision A.03,
 Gaussian 16:  ES64L-G16RevA.03 25-Dec-2016

 -----------------------------
 # wB97XD/aug-cc-pVDZ opt freq
 -----------------------------

 ----
 blah
 ----
 Symbolic Z-matrix:
 Charge =  1 Multiplicity = 1

 SCF Done:  E(RwB97XD) =  -805.035512150     A.U. after   15 cycles
 SCF Done:  E(RwB97XD) =  -805.036642286     A.U. after   15 cycles
 SCF Done:  E(RwB97XD) =  -805.036569808     A.U. after   12 cycles
 SCF Done:  E(RwB97XD) =  -805.037026458     A.U. after   13 cycles
 SCF Done:  E(RwB97XD) =  -805.037420668     A.U. after   12 cycles
 SCF Done:  E(RwB97XD) =  -805.037539927     A.U. after   12 cycles
 SCF Done:  E(RwB97XD) =  -805.037568502     A.U. after   13 cycles
 SCF Done:  E(RwB97XD) =  -805.037672797     A.U. after   12 cycles
 SCF Done:  E(RwB97XD) =  -805.037745852     A.U. after   11 cycles
 SCF Done:  E(RwB97XD) =  -805.037702345     A.U. after   13 cycles
 SCF Done:  E(RwB97XD) =  -805.038256576     A.U. after   10 cycles
 SCF Done:  E(RwB97XD) =  -805.038258236     A.U. after   10 cycles
 SCF Done:  E(RwB97XD) =  -805.038259345     A.U. after    9 cycles
 SCF Done:  E(RwB97XD) =  -805.038260102     A.U. after    9 cycles
 SCF Done:  E(RwB97XD) =  -805.038260443     A.U. after    9 cycles
 SCF Done:  E(RwB97XD) =  -805.038260674     A.U. after    9 cycles
 SCF Done:  E(RwB97XD) =  -805.038260854     A.U. after    9 cycles
 SCF Done:  E(RwB97XD) =  -805.038261015     A.U. after    8 cycles
 SCF Done:  E(RwB97XD) =  -805.038261106     A.U. after    8 cycles
 Optimization completed.
    -- Stationary point found.
 Normal termination of Gaussian 16 at Wed Feb  1 17:19:41 2023.

 ----------------------------------------------------------------------
 #N Geom=AllCheck Guess=TCheck SCRF=Check GenChk RwB97XD/Aug-CC-pVDZ Fr
 eq
 ----------------------------------------------------------------------

 Structure from the checkpoint file:  "/gscratch/scrubbed/gds001/Gau-2990.chk"
 ----
 blah
 ----
 Charge =  1 Multiplicity = 1

                         Standard orientation:
 ---------------------------------------------------------------------
 Center     Atomic      Atomic             Coordinates (Angstroms)
 Number     Number       Type             X           Y           Z
 ---------------------------------------------------------------------
      1          6           0        1.380493    0.034102   -0.419038
      2          6           0        1.015074   -1.305658   -0.265064
      3          6           0        2.039370   -2.243100   -0.124450
      4          6           0        3.362928   -1.816816   -0.148378
      5          6           0        3.618383   -0.456817   -0.299125
      6          7           0        2.647250    0.452256   -0.428660
      7          6           0       -0.428824   -1.734865   -0.256855
      8          6           0       -1.276005   -1.373728   -1.481649
      9          6           0       -2.738023   -1.378651   -0.974076
     10          6           0       -2.636336   -1.487800    0.556147
     11          7           0       -1.222015   -1.119880    0.865287
     12          8           0       -1.500282    1.487926    0.603688
     13          1           0       -2.796221   -2.512017    0.913901
     14          1           0       -3.306832   -2.222889   -1.375469
     15          1           0       -3.253459   -0.457505   -1.262047
     16          1           0       -0.992628   -0.380003   -1.846202
     17          1           0       -1.098851   -2.086749   -2.292156
     18          1           0       -3.298873   -0.810584    1.103118
     19          1           0       -0.475168   -2.819355   -0.080980
     20          1           0        0.622412    0.812422   -0.527064
     21          1           0        4.640812   -0.078509   -0.314455
     22          1           0        4.185152   -2.522448   -0.047551
     23          1           0        1.806465   -3.301859   -0.001746
     24          6           0       -0.775413   -1.481060    2.224029
     25          1           0       -1.192061   -0.062178    0.768301
     26          1           0       -0.903619    2.254998    0.780616
     27          1           0       -2.240208    1.805204    0.059111
     28          1           0        2.749368    2.289190   -0.400983
     29          8           0        2.547627    3.237282   -0.250499
     30          1           0        2.872545    3.721415   -1.012357
     31          8           0        0.155208    3.515262    0.934367
     32          1           0        1.033805    3.489709    0.493595
     33          1           0        0.262226    4.044954    1.726783
     34          1           0       -1.429413   -0.990106    2.950629
     35          1           0        0.253308   -1.136753    2.364983
     36          1           0       -0.828128   -2.568698    2.346711
     37          8           0       -3.692012    2.085557   -1.019485
     38          1           0       -4.486953    2.441106   -0.611179
     39          1           0       -3.554534    2.622158   -1.805758
 ---------------------------------------------------------------------

 SCF Done:  E(RwB97XD) =  -805.038261106     A.U. after    1 cycles

 The electronic state is 1-A.
 Alpha  occ. eigenvalues --  -19.41373 -19.37338 -19.36428 -19.36200 -14.67666
 Alpha  occ. eigenvalues --  -14.58205 -10.49196 -10.47681 -10.47424 -10.46299
 Alpha  occ. eigenvalues --  -10.45934 -10.44934 -10.44790 -10.43430 -10.43204
 Alpha  occ. eigenvalues --  -10.42974  -1.25674  -1.24788  -1.22053  -1.20921
 Alpha  occ. eigenvalues --   -1.19704  -1.17887  -1.06015  -1.03840  -1.00929
 Alpha  occ. eigenvalues --   -0.96396  -0.93732  -0.88460  -0.85491  -0.84485
 Alpha  occ. eigenvalues --   -0.82711  -0.77331  -0.75827  -0.74656  -0.73960
 Alpha  occ. eigenvalues --   -0.73082  -0.72199  -0.71659  -0.71178  -0.69068
 Alpha  occ. eigenvalues --   -0.68774  -0.66076  -0.65184  -0.64747  -0.62928
 Alpha  occ. eigenvalues --   -0.62513  -0.61851  -0.61733  -0.61553  -0.60574
 Alpha  occ. eigenvalues --   -0.59705  -0.58415  -0.57251  -0.57113  -0.56286
 Alpha  occ. eigenvalues --   -0.54856  -0.54401  -0.53674  -0.51558  -0.50191
 Alpha  occ. eigenvalues --   -0.49812  -0.49511  -0.47480  -0.46467
 Alpha virt. eigenvalues --   -0.09307  -0.08408  -0.06664  -0.05973  -0.04803
 Alpha virt. eigenvalues --   -0.04648  -0.03568  -0.03056  -0.02918  -0.02727
 Alpha virt. eigenvalues --   -0.02396  -0.01515  -0.01319  -0.00814  -0.00609

 Mulliken charges:
               1
     1  C    0.777138
     2  C    0.806101
     3  C    1.300997
     4  C    0.507103
     5  C    0.236550
     6  N   -0.500448
     7  C    1.243320
     8  C    0.972863
     9  C    1.022466
    10  C    1.309824
    11  N   -1.303613
    12  O   -0.457268
    13  H   -0.507930
    14  H   -0.244199
    15  H   -0.322460
    16  H   -0.303103
    17  H   -0.521583
    18  H   -0.506599
    19  H   -0.916978
    20  H   -1.053737
    21  H   -0.581032
    22  H   -0.590586
    23  H   -0.911542
    24  C    1.032019
    25  H    0.363612
    26  H    0.320098
    27  H    0.216656
    28  H    0.270725
    29  O   -0.384722
    30  H    0.141770
    31  O   -0.396430
    32  H    0.248152
    33  H    0.136090
    34  H   -0.129024
    35  H   -0.075552
    36  H   -0.142368
    37  O   -0.507203
    38  H    0.217756
    39  H    0.233139
 Sum of Mulliken charges =   1.00000

 Dipole moment (field-independent basis, Debye):
    X=             -3.8263    Y=             -2.4046    Z=              0.1259  Tot=              4.5209
 Quadrupole moment (field-independent basis, Debye-Ang):
   XX=            -50.7148   YY=            -63.0234   ZZ=            -83.7727
   XY=             -8.2549   XZ=             -0.1127   YZ=             -7.7032

  Exact polarizability: 191.184   0.776 164.199  -0.326  -3.193 127.747
 Approx polarizability: 191.560   0.304 183.076  -0.272  -4.789 145.521

                      1                      2                      3
                      A                      A                      A
 Frequencies --     18.2964                31.2357                36.8122
 Red. masses --      4.6953                 4.8663                 4.5962
 Frc consts  --      0.0009                 0.0028                 0.0037
 IR Inten    --      1.5059                 0.4785                 2.9636

                      4                      5                      6
                      A                      A                      A
 Frequencies --     52.6631                54.0509                63.9340
 Red. masses --      4.6893                 4.8349                 4.5173
 Frc consts  --      0.0077                 0.0083                 0.0109
 IR Inten    --      3.3100                 0.8148                 4.3197

                      7                      8                      9
                      A                      A                      A
 Frequencies --     66.8291                85.9236                94.9425
 Red. masses --      5.3525                 5.6255                 2.8820
 Frc consts  --      0.0141                 0.0245                 0.0153
 IR Inten    --      0.4128                 6.0413                 1.9481

                     10                     11                     12
                      A                      A                      A
 Frequencies --    103.0919               147.6983               153.9377
 Red. masses --      2.7535                 2.1797                 5.2390
 Frc consts  --      0.0172                 0.0280                 0.0731
 IR Inten    --      1.7595                 0.4073                13.0970

                     13                     14                     15
                      A                      A                      A
 Frequencies --    174.2367               175.4984               196.8623
 Red. masses --      1.7097                 1.7814                 1.0680
 Frc consts  --      0.0306                 0.0323                 0.0244
 IR Inten    --     24.6081                30.8814               109.9952

                     16                     17                     18
                      A                      A                      A
 Frequencies --    215.5628               227.8754               234.9757
 Red. masses --      2.7276                 1.1449                 1.1334
 Frc consts  --      0.0747                 0.0350                 0.0369
 IR Inten    --      4.0968                 0.5298                84.5714

                     19                     20                     21
                      A                      A                      A
 Frequencies --    246.6948               250.5845               257.8830
 Red. masses --      2.0647                 1.5902                 3.0433
 Frc consts  --      0.0740                 0.0588                 0.1192
 IR Inten    --     26.0498                13.2720                 6.9069

                     22                     23                     24
                      A                      A                      A
 Frequencies --    287.6685               318.2484               325.2292
 Red. masses --      5.0145                 3.8015                 1.2982
 Frc consts  --      0.2445                 0.2268                 0.0809
 IR Inten    --     12.2001                 4.0554               159.3641

                     25                     26                     27
                      A                      A                      A
 Frequencies --    356.2862               393.4870               410.9930
 Red. masses --      3.8035                 3.0004                 2.5695
 Frc consts  --      0.2845                 0.2737                 0.2557
 IR Inten    --     38.6154                 0.2706                 8.3459

                     28                     29                     30
                      A                      A                      A
 Frequencies --    450.5102               467.3081               481.9890
 Red. masses --      3.1964                 1.1753                 1.0678
 Frc consts  --      0.3822                 0.1512                 0.1462
 IR Inten    --     16.3011                28.7532                28.5274

                     31                     32                     33
                      A                      A                      A
 Frequencies --    537.0476               565.7064               633.9851
 Red. masses --      3.6227                 3.1304                 3.4385
 Frc consts  --      0.6156                 0.5902                 0.8143
 IR Inten    --      2.3459                 7.2207                 1.6408

                     34                     35                     36
                      A                      A                      A
 Frequencies --    650.6550               679.7682               713.2959
 Red. masses --      5.8574                 5.5925                 1.0875
 Frc consts  --      1.4610                 1.5226                 0.3260
 IR Inten    --     10.4004                 1.5173                53.4228

                     37                     38                     39
                      A                      A                      A
 Frequencies --    729.4653               737.3149               762.5411
 Red. masses --      1.0623                 1.7902                 1.0945
 Frc consts  --      0.3331                 0.5734                 0.3750
 IR Inten    --     59.5679                53.9868                99.3895

                     40                     41                     42
                      A                      A                      A
 Frequencies --    795.7000               820.0380               838.1629
 Red. masses --      1.2749                 2.0649                 1.7625
 Frc consts  --      0.4756                 0.8181                 0.7295
 IR Inten    --      6.2440                11.6492                 7.6717

                     43                     44                     45
                      A                      A                      A
 Frequencies --    863.2850               921.0897               931.3342
 Red. masses --      1.0634                 2.9067                 2.4587
 Frc consts  --      0.4669                 1.4530                 1.2565
 IR Inten    --    123.2210                13.1276                11.0466

                     46                     47                     48
                      A                      A                      A
 Frequencies --    946.1651               953.1768               981.9605
 Red. masses --      1.3614                 1.4680                 1.3118
 Frc consts  --      0.7181                 0.7858                 0.7452
 IR Inten    --     58.9541                55.7658                 6.6659

                     49                     50                     51
                      A                      A                      A
 Frequencies --    988.7902              1003.6802              1031.0189
 Red. masses --      1.6731                 1.6523                 1.4320
 Frc consts  --      0.9638                 0.9807                 0.8969
 IR Inten    --      3.9712                 4.7379                 0.0546

                     52                     53                     54
                      A                      A                      A
 Frequencies --   1042.3182              1052.6475              1062.2675
 Red. masses --      1.8614                 4.8790                 2.7128
 Frc consts  --      1.1915                 3.1853                 1.8036
 IR Inten    --     12.4824                 9.0945                 7.6908

                     55                     56                     57
                      A                      A                      A
 Frequencies --   1090.4046              1109.9527              1133.1372
 Red. masses --      2.2167                 2.2740                 1.3503
 Frc consts  --      1.5529                 1.6506                 1.0215
 IR Inten    --      1.4486                 4.1912                 3.1567

                     58                     59                     60
                      A                      A                      A
 Frequencies --   1154.6562              1162.1462              1217.4397
 Red. masses --      1.4786                 2.5127                 1.8087
 Frc consts  --      1.1614                 1.9995                 1.5794
 IR Inten    --      7.7145                15.7879                 2.3346

                     61                     62                     63
                      A                      A                      A
 Frequencies --   1225.7703              1234.6445              1247.0707
 Red. masses --      1.4715                 1.6008                 1.2933
 Frc consts  --      1.3026                 1.4377                 1.1851
 IR Inten    --      8.3853                 5.9933                 9.7174

                     64                     65                     66
                      A                      A                      A
 Frequencies --   1271.9710              1288.1597              1298.0304
 Red. masses --      1.5685                 1.2434                 1.5512
 Frc consts  --      1.4951                 1.2156                 1.5399
 IR Inten    --      1.6403                 3.7945                 1.0616

                     67                     68                     69
                      A                      A                      A
 Frequencies --   1314.6959              1342.5103              1365.7324
 Red. masses --      3.2405                 1.3650                 1.2602
 Frc consts  --      3.3000                 1.4495                 1.3849
 IR Inten    --      1.1632                 0.9191                 1.6137

                     70                     71                     72
                      A                      A                      A
 Frequencies --   1377.9471              1380.5475              1411.1158
 Red. masses --      1.4330                 1.3688                 1.6274
 Frc consts  --      1.6030                 1.5370                 1.9093
 IR Inten    --      4.0959                 1.5688                 2.0663

                     73                     74                     75
                      A                      A                      A
 Frequencies --   1452.5385              1481.3869              1482.4477
 Red. masses --      1.1869                 1.0838                 2.0379
 Frc consts  --      1.4754                 1.4013                 2.6387
 IR Inten    --      2.0951                14.5536                28.6979

                     76                     77                     78
                      A                      A                      A
 Frequencies --   1486.0295              1489.1209              1501.5672
 Red. masses --      1.0537                 1.0795                 1.0964
 Frc consts  --      1.3709                 1.4104                 1.4565
 IR Inten    --      1.2790                 2.8956                20.7373

                     79                     80                     81
                      A                      A                      A
 Frequencies --   1518.2904              1531.9000              1544.9966
 Red. masses --      1.1569                 1.7303                 1.3173
 Frc consts  --      1.5712                 2.3923                 1.8526
 IR Inten    --     18.4822                24.6310                32.0381

                     82                     83                     84
                      A                      A                      A
 Frequencies --   1605.2647              1635.8745              1641.5389
 Red. masses --      1.1372                 1.0918                 1.0879
 Frc consts  --      1.7265                 1.7214                 1.7271
 IR Inten    --     29.1306                63.7322                80.5662

                     85                     86                     87
                      A                      A                      A
 Frequencies --   1661.1162              1664.6484              1684.2092
 Red. masses --      1.6975                 1.9012                 1.8172
 Frc consts  --      2.7597                 3.1039                 3.0369
 IR Inten    --     23.3761                 8.8683                 0.7019

                     88                     89                     90
                      A                      A                      A
 Frequencies --   1686.9674              2804.3219              3075.0405
 Red. masses --      1.8097                 1.0937                 1.0786
 Frc consts  --      3.0343                 5.0677                 6.0090
 IR Inten    --     50.4250              1318.4400                 1.9518

                     91                     92                     93
                      A                      A                      A
 Frequencies --   3078.3154              3099.7544              3104.7395
 Red. masses --      1.0403                 1.0629                 1.0628
 Frc consts  --      5.8083                 6.0173                 6.0362
 IR Inten    --      2.2174                 6.5638                11.9142

                     94                     95                     96
                      A                      A                      A
 Frequencies --   3112.9098              3158.0856              3169.6155
 Red. masses --      1.0636                 1.1062                 1.1059
 Frc consts  --      6.0725                 6.5005                 6.5461
 IR Inten    --      6.0707                 2.3899                 3.2088

                     97                     98                     99
                      A                      A                      A
 Frequencies --   3178.6766              3179.6554              3187.1534
 Red. masses --      1.1072                 1.1063                 1.0925
 Frc consts  --      6.5914                 6.5901                 6.5386
 IR Inten    --      1.2057                 5.5017                 3.9849

                    100                    101                    102
                      A                      A                      A
 Frequencies --   3191.3446              3199.6603              3210.0836
 Red. masses --      1.1070                 1.0916                 1.0926
 Frc consts  --      6.6425                 6.5845                 6.6334
 IR Inten    --      1.2793                 3.2209                 4.6566

                    103                    104                    105
                      A                      A                      A
 Frequencies --   3240.4689              3352.4961              3457.8311
 Red. masses --      1.0982                 1.0661                 1.0638
 Frc consts  --      6.7943                 7.0599                 7.4942
 IR Inten    --      1.7366               920.1367              1407.1611

                    106                    107                    108
                      A                      A                      A
 Frequencies --   3516.6469              3689.7477              3866.0891
 Red. masses --      1.0622                 1.0686                 1.0457
 Frc consts  --      7.7398                 8.5718                 9.2089
 IR Inten    --    670.5811               661.0589                30.0381

                    109                    110                    111
                      A                      A                      A
 Frequencies --   3950.5302              3953.6418              3966.7300
 Red. masses --      1.0682                 1.0676                 1.0822
 Frc consts  --      9.8219                 9.8322                10.0327
 IR Inten    --    126.1883                95.5803               107.4123

 - Thermochemistry -
 -------------------
 Temperature   298.150 Kelvin.  Pressure   1.00000 Atm.
 Atom     1 has atomic number  6 and mass  12.00000

 Molecular mass:   235.16578 amu.
 Principal axes and moments of inertia in atomic units:
                           1         2         3
     Eigenvalues --  3819.755765012.965867401.15923
           X            0.99990   0.01406   0.00350
           Y           -0.01403   0.99986  -0.00906
           Z           -0.00363   0.00901   0.99995
 This molecule is an asymmetric top.
 Rotational symmetry number  1.
 Warning -- assumption of classical behavior for rotation
           may cause significant error
 Rotational temperatures (Kelvin)      0.02268     0.01728     0.01170
 Rotational constants (GHZ):           0.47248     0.36001     0.24385
 Zero-point vibrational energy     903540.0 (Joules/Mol)
                                  215.95124 (Kcal/Mol)
 Warning -- explicit consideration of  32 degrees of freedom as
           vibrations may cause significant error
 Vibrational temperatures:     26.32    44.94    52.96    75.77    77.77
          (Kelvin)             91.99    96.15   123.62   136.60   148.33
                              212.50   221.48   250.69   252.50   283.24
                              310.15   327.86   338.08   354.94   360.54
                              371.04   413.89   457.89   467.93   512.62
                              566.14   591.33   648.18   672.35   693.47
                              772.69   813.93   912.16   936.15   978.03
                             1026.27  1049.54  1060.83  1097.13  1144.83
                             1179.85  1205.93  1242.07  1325.24  1339.98
                             1361.32  1371.41  1412.82  1422.65  1444.07
                             1483.41  1499.66  1514.53  1528.37  1568.85
                             1596.97  1630.33  1661.29  1672.07  1751.62
                             1763.61  1776.38  1794.26  1830.08  1853.37
                             1867.58  1891.55  1931.57  1964.98  1982.56
                             1986.30  2030.28  2089.88  2131.39  2132.91
                             2138.07  2142.51  2160.42  2184.48  2204.06
                             2222.91  2309.62  2353.66  2361.81  2389.98
                             2395.06  2423.20  2427.17  4034.79  4424.30
                             4429.01  4459.86  4467.03  4478.78  4543.78
                             4560.37  4573.41  4574.81  4585.60  4591.63
                             4603.60  4618.59  4662.31  4823.49  4975.05
                             5059.67  5308.72  5562.44  5683.93  5688.41
                             5707.24

 Zero-point correction=                           0.344140 (Hartree/Particle)
 Thermal correction to Energy=                    0.366320
 Thermal correction to Enthalpy=                  0.367265
 Thermal correction to Gibbs Free Energy=         0.290956
 Sum of electronic and zero-point Energies=           -804.694121
 Sum of electronic and thermal Energies=              -804.671941
 Sum of electronic and thermal Enthalpies=            -804.670996
 Sum of electronic and thermal Free Energies=         -804.747305

                     E (Thermal)             CV                S
                      KCal/Mol        Cal/Mol-Kelvin    Cal/Mol-Kelvin
 Total                  229.870             78.135            160.604
 Electronic               0.000              0.000              0.000
 Translational            0.889              2.981             42.267
 Rotational               0.889              2.981             33.316
 Vibrational            228.092             72.173             85.021
 Vibration     1          0.593              1.986              6.811
 Vibration     2          0.594              1.983              5.749
 Vibration     3          0.594              1.982              5.424
 Vibration     4          0.596              1.977              4.715
 Vibration     5          0.596              1.976              4.663
 Vibration     6          0.597              1.972              4.332
 Vibration     7          0.598              1.970              4.245
 Vibration     8          0.601              1.959              3.751
 Vibration     9          0.603              1.953              3.556
 Vibration    10          0.605              1.947              3.395
 Vibration    11          0.617              1.905              2.702
 Vibration    12          0.619              1.898              2.623
 Vibration    13          0.627              1.874              2.389
 Vibration    14          0.627              1.873              2.376
 Vibration    15          0.636              1.844              2.162
 Vibration    16          0.645              1.817              1.996
 Vibration    17          0.651              1.799              1.896
 Vibration    18          0.655              1.787              1.841
 Vibration    19          0.661              1.768              1.754
 Vibration    20          0.663              1.762              1.726
 Vibration    21          0.667              1.749              1.676
 Vibration    22          0.685              1.697              1.488
 Vibration    23          0.705              1.639              1.319
 Vibration    24          0.709              1.625              1.284
 Vibration    25          0.732              1.562              1.138
 Vibration    26          0.761              1.484              0.987
 Vibration    27          0.775              1.446              0.923
 Vibration    28          0.809              1.360              0.794
 Vibration    29          0.825              1.323              0.745
 Vibration    30          0.838              1.290              0.705
 Vibration    31          0.892              1.168              0.572
 Vibration    32          0.922              1.105              0.513

                           ! Non-Optimized Parameters !
 Normal termination of Gaussian 16 at Wed Feb  1 18:28:37 2023.
