 Gaussian 16, Revision A.03,
 Gaussian 16:  ES64L-G16RevA.03 25-Dec-2016

 -----------------------------------------
 # wB97XD/aug-cc-pVDZ Temperature=130 Freq
 -----------------------------------------

 ----------------------------
 p-Pyr Nicotine, N anti, 4H2O
 ----------------------------
 Symbolic Z-matrix:
 Charge =  1 Multiplicity = 1

                         Standard orientation:
 ---------------------------------------------------------------------
 Center     Atomic      Atomic             Coordinates (Angstroms)
 Number     Number       Type             X           Y           Z
 ---------------------------------------------------------------------
      1          7           0        1.848737   -0.018892    0.702526
      2          6           0        1.526256    0.997189   -0.387031
      3          6           0        1.937500    0.293610   -1.678632
      4          6           0        3.183827   -0.485346   -1.257876
      5          6           0        2.804938   -1.037064    0.115048
      6          6           0        0.105635    1.486596   -0.280143
      7          6           0       -0.969300    0.627069   -0.522801
      8          7           0       -2.244526    1.003068   -0.418155
      9          6           0       -2.509357    2.271179   -0.083836
     10          6           0       -1.512488    3.210010    0.161192
     11          6           0       -0.183960    2.805527    0.067700
     12          8           0       -0.193440   -1.340219    1.943997
     13          8           0       -1.908776   -2.921051    0.547874
     14          8           0       -3.764562   -1.305040   -0.392429
     15          1           0        3.649335   -1.164845    0.797808
     16          1           0        4.052250    0.182782   -1.185318
     17          1           0        3.436146   -1.292700   -1.951934
     18          1           0        1.148824   -0.391778   -2.007050
     19          1           0        2.125313    1.024246   -2.471688
     20          1           0        2.248236   -1.973954    0.027724
     21          1           0        2.209045    1.838090   -0.207347
     22          1           0       -0.795750   -0.413089   -0.807606
     23          1           0       -3.562758    2.542386   -0.010312
     24          1           0       -1.774264    4.233261    0.422916
     25          1           0        0.621035    3.517100    0.257972
     26          6           0        2.341392    0.620202    1.944168
     27          1           0        0.977577   -0.518667    0.986543
     28          1           0       -0.640029   -0.978361    2.712750
     29          1           0       -0.841489   -1.940482    1.517046
     30          1           0       -3.366557   -0.408170   -0.483915
     31          1           0       -4.324816   -1.446386   -1.158635
     32          1           0       -2.670773   -2.400417    0.182867
     33          1           0       -2.271602   -3.730284    0.915815
     34          1           0       -0.515928   -2.858585   -0.622751
     35          8           0        0.245588   -2.517633   -1.125722
     36          1           0        0.320842   -3.090326   -1.892480
     37          1           0        3.306881    1.096913    1.745972
     38          1           0        2.450935   -0.147171    2.715732
     39          1           0        1.610944    1.368924    2.268802
 ---------------------------------------------------------------------

 SCF Done:  E(RwB97XD) =  -805.041076988     A.U. after   15 cycles

 The electronic state is 1-A.
 Alpha  occ. eigenvalues --  -19.39636 -19.39445 -19.37823 -19.37366 -14.68058
 Alpha  occ. eigenvalues --  -14.58433 -10.49122 -10.47822 -10.46834 -10.46301
 Alpha  occ. eigenvalues --  -10.46143 -10.44965 -10.44893 -10.43346 -10.42959
 Alpha  occ. eigenvalues --  -10.42858  -1.24931  -1.24072  -1.23157  -1.21959
 Alpha  occ. eigenvalues --   -1.21286  -1.18072  -1.06172  -1.04008  -1.00973
 Alpha  occ. eigenvalues --   -0.96402  -0.94161  -0.87546  -0.85644  -0.83914
 Alpha  occ. eigenvalues --   -0.82935  -0.77770  -0.75739  -0.74854  -0.74548
 Alpha  occ. eigenvalues --   -0.73691  -0.72919  -0.72120  -0.70654  -0.70267
 Alpha  occ. eigenvalues --   -0.67590  -0.65574  -0.65341  -0.64996  -0.63746
 Alpha  occ. eigenvalues --   -0.62672  -0.62338  -0.61819  -0.61539  -0.59890
 Alpha  occ. eigenvalues --   -0.59509  -0.58564  -0.58065  -0.56890  -0.56782
 Alpha  occ. eigenvalues --   -0.56066  -0.54652  -0.53096  -0.52927  -0.51104
 Alpha  occ. eigenvalues --   -0.50960  -0.49769  -0.47793  -0.46462
 Alpha virt. eigenvalues --   -0.09467  -0.08476  -0.06574  -0.05663  -0.05067
 Alpha virt. eigenvalues --   -0.04621  -0.03529  -0.03284  -0.03181  -0.02767
 Alpha virt. eigenvalues --   -0.02458  -0.01400  -0.01286  -0.00978  -0.00524

 Mulliken charges:
               1
     1  N   -0.322722
     2  C    0.895503
     3  C    0.943990
     4  C    0.794610
     5  C    1.316107
     6  C    0.921591
     7  C    0.901183
     8  N   -0.523066
     9  C    0.230038
    10  C    0.500167
    11  C    1.314064
    12  O   -0.553805
    13  O   -0.668556
    14  O   -0.370737
    15  H   -0.428209
    16  H   -0.325227
    17  H   -0.288149
    18  H   -0.315152
    19  H   -0.455640
    20  H   -0.477343
    21  H   -0.863696
    22  H   -1.208067
    23  H   -0.613948
    24  H   -0.598515
    25  H   -0.930631
    26  C    1.041946
    27  H    0.019700
    28  H    0.257593
    29  H    0.270674
    30  H    0.268340
    31  H    0.139292
    32  H    0.378385
    33  H    0.211693
    34  H    0.229992
    35  O   -0.547403
    36  H    0.263531
    37  H   -0.164955
    38  H   -0.212136
    39  H   -0.030441
 Sum of Mulliken charges =   1.00000

 Dipole moment (field-independent basis, Debye):
    X=              2.5041    Y=              0.4028    Z=              1.1191  Tot=              2.7722
 Quadrupole moment (field-independent basis, Debye-Ang):
   XX=            -60.6803   YY=            -64.8522   ZZ=            -81.9520
   XY=              4.9724   XZ=              3.5316   YZ=              5.1177

  Exact polarizability: 182.065  -8.601 167.817  -0.808   7.271 130.496
 Approx polarizability: 188.953  -2.389 183.654  -0.247  10.101 148.372

                      1                      2                      3
                      A                      A                      A
 Frequencies --     35.0121                42.0064                54.3837
 Red. masses --      3.8473                 4.2858                 3.9277
 Frc consts  --      0.0028                 0.0045                 0.0068
 IR Inten    --      0.7993                 0.6741                 1.7725

                      4                      5                      6
                      A                      A                      A
 Frequencies --     58.5834                64.8111                86.6988
 Red. masses --      4.8133                 4.5074                 4.4650
 Frc consts  --      0.0097                 0.0112                 0.0198
 IR Inten    --      0.1166                 3.2254                 3.1782

                      7                      8                      9
                      A                      A                      A
 Frequencies --     94.6388               101.0471               117.9702
 Red. masses --      5.0885                 5.1394                 4.1203
 Frc consts  --      0.0269                 0.0309                 0.0338
 IR Inten    --      6.9778                 1.9645                 2.1667

                     10                     11                     12
                      A                      A                      A
 Frequencies --    135.8056               145.7973               179.8614
 Red. masses --      3.2303                 3.0908                 5.3082
 Frc consts  --      0.0351                 0.0387                 0.1012
 IR Inten    --      0.9313                 0.3757                 3.2640

                     13                     14                     15
                      A                      A                      A
 Frequencies --    185.4903               192.3572               232.9012
 Red. masses --      4.7743                 1.2918                 2.0951
 Frc consts  --      0.0968                 0.0282                 0.0670
 IR Inten    --     16.5445                84.2141                43.9142

                     16                     17                     18
                      A                      A                      A
 Frequencies --    236.5307               256.3023               266.2953
 Red. masses --      1.6374                 1.2938                 2.1398
 Frc consts  --      0.0540                 0.0501                 0.0894
 IR Inten    --     95.5209                57.3829                14.0264

                     19                     20                     21
                      A                      A                      A
 Frequencies --    267.6832               279.9220               295.6745
 Red. masses --      2.3366                 3.4207                 1.1766
 Frc consts  --      0.0986                 0.1579                 0.0606
 IR Inten    --      8.8915                34.6461                 0.2856

                     22                     23                     24
                      A                      A                      A
 Frequencies --    328.7694               340.6677               347.3184
 Red. masses --      3.9791                 5.3191                 1.0932
 Frc consts  --      0.2534                 0.3637                 0.0777
 IR Inten    --      4.3192                25.8844                25.2467

                     25                     26                     27
                      A                      A                      A
 Frequencies --    383.1736               417.4278               431.7110
 Red. masses --      2.9627                 2.6297                 2.2621
 Frc consts  --      0.2563                 0.2700                 0.2484
 IR Inten    --      1.7089                12.9051                 2.3935

                     28                     29                     30
                      A                      A                      A
 Frequencies --    444.0217               484.6175               527.3346
 Red. masses --      1.1664                 1.0824                 1.2075
 Frc consts  --      0.1355                 0.1498                 0.1978
 IR Inten    --    107.3726                29.1698                43.1337

                     31                     32                     33
                      A                      A                      A
 Frequencies --    544.5864               555.1589               561.1138
 Red. masses --      1.3694                 2.2079                 1.9024
 Frc consts  --      0.2393                 0.4009                 0.3529
 IR Inten    --     15.4137                10.9572                11.3796

                     34                     35                     36
                      A                      A                      A
 Frequencies --    614.1844               650.5149               675.5691
 Red. masses --      2.5349                 6.8588                 5.5100
 Frc consts  --      0.5634                 1.7101                 1.4816
 IR Inten    --      1.8810                16.8043                 0.5456

                     37                     38                     39
                      A                      A                      A
 Frequencies --    693.6377               740.4870               803.4641
 Red. masses --      1.0608                 2.0262                 1.9642
 Frc consts  --      0.3007                 0.6546                 0.7471
 IR Inten    --    106.2278                44.3845                 4.3993

                     40                     41                     42
                      A                      A                      A
 Frequencies --    818.1462               835.4158               847.0680
 Red. masses --      1.0737                 1.6101                 1.4077
 Frc consts  --      0.4235                 0.6621                 0.5951
 IR Inten    --    145.2507                72.1735                33.5350

                     43                     44                     45
                      A                      A                      A
 Frequencies --    856.9161               884.1415               924.4666
 Red. masses --      1.6970                 2.3694                 1.8134
 Frc consts  --      0.7342                 1.0913                 0.9131
 IR Inten    --      7.1962                20.4672                 7.5161

                     46                     47                     48
                      A                      A                      A
 Frequencies --    942.8597               962.8311               969.5163
 Red. masses --      2.2111                 1.0452                 2.1484
 Frc consts  --      1.1581                 0.5709                 1.1898
 IR Inten    --      5.7702                66.8582                14.2567

                     49                     50                     51
                      A                      A                      A
 Frequencies --    987.4062              1008.3026              1035.1246
 Red. masses --      1.3405                 1.4237                 1.7285
 Frc consts  --      0.7701                 0.8528                 1.0912
 IR Inten    --      0.8273                 2.8819                11.1770

                     52                     53                     54
                      A                      A                      A
 Frequencies --   1041.1957              1052.3091              1052.9845
 Red. masses --      1.6533                 2.1611                 4.6894
 Frc consts  --      1.0560                 1.4100                 3.0635
 IR Inten    --      9.6948                10.0865                 4.7456

                     55                     56                     57
                      A                      A                      A
 Frequencies --   1091.6250              1102.7854              1118.6906
 Red. masses --      2.1790                 1.9942                 1.7005
 Frc consts  --      1.5299                 1.4289                 1.2538
 IR Inten    --      1.9532                14.3490                 2.3469

                     58                     59                     60
                      A                      A                      A
 Frequencies --   1141.9986              1154.5561              1206.9339
 Red. masses --      1.7865                 1.4198                 1.3725
 Frc consts  --      1.3727                 1.1151                 1.1779
 IR Inten    --      5.4108                 9.2869                 4.4938

                     61                     62                     63
                      A                      A                      A
 Frequencies --   1213.1173              1227.9934              1238.1856
 Red. masses --      1.8287                 1.5742                 1.5778
 Frc consts  --      1.5856                 1.3986                 1.4252
 IR Inten    --      0.2390                 3.1760                 6.8976

                     64                     65                     66
                      A                      A                      A
 Frequencies --   1269.6980              1303.7719              1310.5914
 Red. masses --      1.6695                 2.8278                 1.2629
 Frc consts  --      1.5858                 2.8321                 1.2781
 IR Inten    --      5.9349                 1.3217                 1.5940

                     67                     68                     69
                      A                      A                      A
 Frequencies --   1318.4638              1354.8212              1370.3302
 Red. masses --      1.6742                 1.4170                 1.4078
 Frc consts  --      1.7147                 1.5324                 1.5575
 IR Inten    --      0.9984                 0.5144                 3.4118

                     70                     71                     72
                      A                      A                      A
 Frequencies --   1381.6002              1398.6461              1402.8538
 Red. masses --      1.3431                 1.3461                 1.3631
 Frc consts  --      1.5105                 1.5514                 1.5806
 IR Inten    --      3.5461                 0.7618                 1.1934

                     73                     74                     75
                      A                      A                      A
 Frequencies --   1450.9436              1477.8691              1481.5425
 Red. masses --      1.1832                 1.1201                 2.1198
 Frc consts  --      1.4676                 1.4414                 2.7414
 IR Inten    --      5.8055                 9.0209                27.0128

                     76                     77                     78
                      A                      A                      A
 Frequencies --   1484.7546              1485.5889              1490.7453
 Red. masses --      1.0808                 1.0670                 1.0902
 Frc consts  --      1.4038                 1.3875                 1.4275
 IR Inten    --      4.5262                 2.6061                 5.1690

                     79                     80                     81
                      A                      A                      A
 Frequencies --   1505.2391              1509.3533              1533.5256
 Red. masses --      1.1415                 1.1661                 1.6312
 Frc consts  --      1.5238                 1.5652                 2.2602
 IR Inten    --     26.6870                51.4729                 8.6658

                     82                     83                     84
                      A                      A                      A
 Frequencies --   1542.7466              1644.3866              1655.6392
 Red. masses --      1.3847                 1.0972                 1.0780
 Frc consts  --      1.9418                 1.7479                 1.7411
 IR Inten    --     35.5907                36.0116                47.2862

                     85                     86                     87
                      A                      A                      A
 Frequencies --   1663.1149              1671.7118              1686.4911
 Red. masses --      3.4468                 1.2185                 5.4023
 Frc consts  --      5.6171                 2.0063                 9.0531
 IR Inten    --     66.1551                67.4533                31.8223

                     88                     89                     90
                      A                      A                      A
 Frequencies --   1705.3582              3074.1591              3086.0079
 Red. masses --      1.0681                 1.0338                 1.0684
 Frc consts  --      1.8302                 5.7560                 5.9948
 IR Inten    --      5.4618                28.3192                 5.2040

                     91                     92                     93
                      A                      A                      A
 Frequencies --   3087.5205              3108.8003              3119.5329
 Red. masses --      1.0861                 1.0615                 1.0613
 Frc consts  --      6.1004                 6.0444                 6.0852
 IR Inten    --     70.4162                 8.1869                58.1237

                     94                     95                     96
                      A                      A                      A
 Frequencies --   3124.2326              3160.9230              3173.4587
 Red. masses --      1.0816                 1.1009                 1.1067
 Frc consts  --      6.2204                 6.4806                 6.5664
 IR Inten    --    580.7966                 4.8221                 3.9771

                     97                     98                     99
                      A                      A                      A
 Frequencies --   3177.7763              3184.4945              3190.5594
 Red. masses --      1.1072                 1.0944                 1.1076
 Frc consts  --      6.5874                 6.5388                 6.6429
 IR Inten    --      1.8170                 5.2756                 4.4441

                    100                    101                    102
                      A                      A                      A
 Frequencies --   3192.2148              3197.5105              3209.0587
 Red. masses --      1.1104                 1.0916                 1.0924
 Frc consts  --      6.6667                 6.5758                 6.6279
 IR Inten    --      3.3648                 4.1061                 7.6393

                    103                    104                    105
                      A                      A                      A
 Frequencies --   3239.0988              3275.7265              3417.9627
 Red. masses --      1.0981                 1.0669                 1.0646
 Frc consts  --      6.7882                 6.7452                 7.3277
 IR Inten    --      4.2544              1006.9569              1264.6817

                    106                    107                    108
                      A                      A                      A
 Frequencies --   3513.8618              3659.1836              3935.5765
 Red. masses --      1.0626                 1.0588                 1.0667
 Frc consts  --      7.7301                 8.3531                 9.7345
 IR Inten    --    576.5058               556.5123                98.6283

                    109                    110                    111
                      A                      A                      A
 Frequencies --   3939.9481              3942.1880              3946.7507
 Red. masses --      1.0680                 1.0694                 1.0675
 Frc consts  --      9.7678                 9.7917                 9.7971
 IR Inten    --    162.0786                18.6502               127.3625

 - Thermochemistry -
 -------------------
 Temperature   130.000 Kelvin.  Pressure   1.00000 Atm.
 Atom     1 has atomic number  7 and mass  14.00307

 Molecular mass:   235.16578 amu.
 Principal axes and moments of inertia in atomic units:
                           1         2         3
     Eigenvalues --  3574.513474521.827596296.70966
           X            0.99938   0.03513   0.00198
           Y           -0.03515   0.99930   0.01262
           Z           -0.00154  -0.01268   0.99992
 This molecule is an asymmetric top.
 Rotational symmetry number  1.
 Warning -- assumption of classical behavior for rotation
           may cause significant error
 Rotational temperatures (Kelvin)      0.02423     0.01915     0.01376
 Rotational constants (GHZ):           0.50489     0.39912     0.28662
 Zero-point vibrational energy     907035.1 (Joules/Mol)
                                  216.78660 (Kcal/Mol)
 Warning -- explicit consideration of  19 degrees of freedom as
           vibrations may cause significant error
 Vibrational temperatures:     50.37    60.44    78.25    84.29    93.25
          (Kelvin)            124.74   136.16   145.38   169.73   195.39
                              209.77   258.78   266.88   276.76   335.09
                              340.31   368.76   383.14   385.14   402.75
                              425.41   473.03   490.14   499.71   551.30
                              600.59   621.14   638.85   697.26   758.72
                              783.54   798.75   807.32   883.67   935.95
                              971.99   997.99  1065.40  1156.01  1177.13
                             1201.98  1218.74  1232.91  1272.08  1330.10
                             1356.56  1385.30  1394.92  1420.66  1450.72
                             1489.31  1498.05  1514.04  1515.01  1570.60
                             1586.66  1609.55  1643.08  1661.15  1736.51
                             1745.41  1766.81  1781.47  1826.81  1875.84
                             1885.65  1896.98  1949.29  1971.60  1987.81
                             2012.34  2018.39  2087.58  2126.32  2131.61
                             2136.23  2137.43  2144.85  2165.70  2171.62
                             2206.40  2219.67  2365.91  2382.10  2392.85
                             2405.22  2426.48  2453.63  4423.03  4440.08
                             4442.25  4472.87  4488.31  4495.07  4547.86
                             4565.90  4572.11  4581.78  4590.50  4592.89
                             4600.50  4617.12  4660.34  4713.04  4917.69
                             5055.66  5264.75  5662.42  5668.71  5671.93
                             5678.49

 Zero-point correction=                           0.345471 (Hartree/Particle)
 Thermal correction to Energy=                    0.350584
 Thermal correction to Enthalpy=                  0.350995
 Thermal correction to Gibbs Free Energy=         0.329858
 Sum of electronic and zero-point Energies=           -804.695606
 Sum of electronic and thermal Energies=              -804.690493
 Sum of electronic and thermal Enthalpies=            -804.690082
 Sum of electronic and thermal Free Energies=         -804.711219

                     E (Thermal)             CV                S
                      KCal/Mol        Cal/Mol-Kelvin    Cal/Mol-Kelvin
 Total                  219.995             42.729            102.030
 Electronic               0.000              0.000              0.000
 Translational            0.388              2.981             38.143
 Rotational               0.388              2.981             30.513
 Vibrational            219.220             36.767             33.374
 Vibration     1          0.262              1.963              3.884
 Vibration     2          0.263              1.952              3.527
 Vibration     3          0.266              1.928              3.026
 Vibration     4          0.267              1.919              2.883
 Vibration     5          0.269              1.904              2.690
 Vibration     6          0.278              1.842              2.144
 Vibration     7          0.282              1.815              1.984
 Vibration     8          0.285              1.792              1.865
 Vibration     9          0.294              1.727              1.593
 Vibration    10          0.305              1.652              1.355
 Vibration    11          0.312              1.607              1.239
 Vibration    12          0.338              1.443              0.918
 Vibration    13          0.343              1.415              0.874
 Vibration    14          0.349              1.380              0.823
 Vibration    15          0.388              1.174              0.578
 Vibration    16          0.391              1.156              0.560
 Vibration    17          0.412              1.058              0.471
 Vibration    18          0.423              1.009              0.432
 Vibration    19          0.424              1.002              0.426

 Optimization completed.
    -- Stationary point found.
 Normal termination of Gaussian 16 at Thu Aug 27 13:59:49 2020.
