 Gaussian 16, Revision A.03,
 Gaussian 16:  ES64L-G16RevA.03 25-Dec-2016

 -----------------------------
 # wB97XD/aug-cc-pVDZ opt freq
 -----------------------------

 ----
 blah
 ----
 Symbolic Z-matrix:
 Charge =  1 Multiplicity = 1

 SCF Done:  E(RwB97XD) =  -805.020770669     A.U. after   14 cycles
 SCF Done:  E(RwB97XD) =  -805.021302620     A.U. after   15 cycles
 SCF Done:  E(RwB97XD) =  -805.021199286     A.U. after   15 cycles
 SCF Done:  E(RwB97XD) =  -805.021796558     A.U. after   12 cycles
 SCF Done:  E(RwB97XD) =  -805.021915425     A.U. after   12 cycles
 SCF Done:  E(RwB97XD) =  -805.021832045     A.U. after   13 cycles
 SCF Done:  E(RwB97XD) =  -805.021900343     A.U. after   13 cycles
 SCF Done:  E(RwB97XD) =  -805.022039998     A.U. after   11 cycles
 SCF Done:  E(RwB97XD) =  -805.022059757     A.U. after   12 cycles
 SCF Done:  E(RwB97XD) =  -805.022041701     A.U. after   13 cycles
 SCF Done:  E(RwB97XD) =  -805.022289354     A.U. after    9 cycles
 SCF Done:  E(RwB97XD) =  -805.022289804     A.U. after    9 cycles
 SCF Done:  E(RwB97XD) =  -805.022290115     A.U. after    9 cycles
 SCF Done:  E(RwB97XD) =  -805.022290336     A.U. after    9 cycles
 SCF Done:  E(RwB97XD) =  -805.022290372     A.U. after    8 cycles
 SCF Done:  E(RwB97XD) =  -805.022290408     A.U. after    8 cycles
 SCF Done:  E(RwB97XD) =  -805.022290441     A.U. after    8 cycles
 SCF Done:  E(RwB97XD) =  -805.022290447     A.U. after    7 cycles
 SCF Done:  E(RwB97XD) =  -805.022290449     A.U. after    7 cycles
 Optimization completed on the basis of negligible forces.
    -- Stationary point found.
 Normal termination of Gaussian 16 at Fri Jan 27 20:47:56 2023.

 ----------------------------------------------------------------------
 #N Geom=AllCheck Guess=TCheck SCRF=Check GenChk RwB97XD/Aug-CC-pVDZ Fr
 eq
 ----------------------------------------------------------------------

 Structure from the checkpoint file:  "/gscratch/scrubbed/gds001/Gau-29282.chk"
 ----
 blah
 ----
 Charge =  1 Multiplicity = 1

                         Standard orientation:
 ---------------------------------------------------------------------
 Center     Atomic      Atomic             Coordinates (Angstroms)
 Number     Number       Type             X           Y           Z
 ---------------------------------------------------------------------
      1          6           0        3.074682   -1.648631   -0.906802
      2          6           0        2.681838   -0.177783   -0.618404
      3          7           0        3.871253    0.397163   -0.010167
      4          6           0        4.993563   -0.172331   -0.751269
      5          6           0        4.621254   -1.647977   -0.897461
      6          6           0        1.480157   -0.058663    0.287836
      7          6           0        0.219845    0.215775   -0.217897
      8          7           0       -0.851140    0.277330    0.589618
      9          6           0       -0.762582    0.088599    1.912033
     10          6           0        0.468363   -0.179143    2.488581
     11          6           0        1.591854   -0.252669    1.670236
     12          6           0        3.873356    1.847521    0.027919
     13          1           0        2.442582    0.329779   -1.577338
     14          1           0        2.674372   -2.314483   -0.132992
     15          1           0        2.655616   -1.975582   -1.865099
     16          1           0        4.997693   -2.221879   -0.043403
     17          1           0        5.043327   -2.087375   -1.807230
     18          1           0        5.090585    0.306127   -1.747347
     19          1           0        5.931002   -0.008308   -0.206861
     20          1           0        2.579482   -0.448130    2.087821
     21          1           0       -1.690528    0.162538    2.473948
     22          1           0       -1.807236    0.490885    0.157501
     23          1           0        0.030185    0.395257   -1.274481
     24          1           0        3.033393    2.216000    0.631689
     25          1           0        3.798506    2.293161   -0.984422
     26          1           0        4.800990    2.200529    0.493039
     27          1           0        0.540157   -0.325990    3.563764
     28          8           0       -3.154303    0.784859   -0.492035
     29          1           0       -3.565202    1.661746   -0.583827
     30          1           0       -3.803852    0.097628   -0.753154
     31          8           0       -4.809029   -1.213372   -1.187998
     32          1           0       -4.971470   -1.460170   -2.100669
     33          1           0       -5.584829   -1.516891   -0.682494
     34          8           0       -4.157257    3.355345   -0.710663
     35          1           0       -4.828161    3.737219   -0.138643
     36          1           0       -4.235555    3.818574   -1.548879
     37          8           0       -6.977894   -2.100669    0.290374
     38          1           0       -7.064813   -3.014094    0.575613
     39          1           0       -7.873146   -1.755479    0.241253
 ---------------------------------------------------------------------

 SCF Done:  E(RwB97XD) =  -805.022290449     A.U. after    1 cycles

 The electronic state is 1-A.
 Alpha  occ. eigenvalues --  -19.39853 -19.39470 -19.37092 -19.36600 -14.65608
 Alpha  occ. eigenvalues --  -14.54218 -10.49523 -10.49167 -10.45824 -10.45442
 Alpha  occ. eigenvalues --  -10.45347 -10.44075 -10.40557 -10.40525 -10.39546
 Alpha  occ. eigenvalues --  -10.38240  -1.24282  -1.24040  -1.23841  -1.21738
 Alpha  occ. eigenvalues --   -1.20339  -1.14706  -1.06349  -1.03067  -0.98070
 Alpha  occ. eigenvalues --   -0.93805  -0.88798  -0.87492  -0.86452  -0.81102
 Alpha  occ. eigenvalues --   -0.77431  -0.76102  -0.74551  -0.74190  -0.73423
 Alpha  occ. eigenvalues --   -0.73374  -0.72625  -0.71940  -0.69413  -0.67405
 Alpha  occ. eigenvalues --   -0.67370  -0.66180  -0.63359  -0.63027  -0.62174
 Alpha  occ. eigenvalues --   -0.61391  -0.60929  -0.59940  -0.58810  -0.57632
 Alpha  occ. eigenvalues --   -0.56047  -0.55875  -0.54975  -0.54055  -0.53289
 Alpha  occ. eigenvalues --   -0.52657  -0.52299  -0.51451  -0.51367  -0.50928
 Alpha  occ. eigenvalues --   -0.50489  -0.49792  -0.47575  -0.40288
 Alpha virt. eigenvalues --   -0.12461  -0.09107  -0.06155  -0.04744  -0.04548
 Alpha virt. eigenvalues --   -0.04115  -0.02957  -0.02842  -0.02493  -0.01952
 Alpha virt. eigenvalues --   -0.01691  -0.01403  -0.00853  -0.00640  -0.00585

 Mulliken charges:
               1
     1  C    0.942371
     2  C    0.778440
     3  N   -0.433456
     4  C    1.198101
     5  C    0.674102
     6  C    1.292591
     7  C    0.592345
     8  N   -0.058905
     9  C    0.800015
    10  C    0.152934
    11  C    1.143976
    12  C    0.842663
    13  H   -0.807643
    14  H   -0.439994
    15  H   -0.383649
    16  H   -0.329642
    17  H   -0.281103
    18  H   -0.380105
    19  H   -0.534092
    20  H   -0.972257
    21  H   -0.666933
    22  H    0.152522
    23  H   -0.865124
    24  H   -0.340182
    25  H   -0.165052
    26  H   -0.238732
    27  H   -0.588090
    28  O   -0.481815
    29  H    0.198758
    30  H    0.267955
    31  O   -0.383760
    32  H    0.133058
    33  H    0.232087
    34  O   -0.333122
    35  H    0.151532
    36  H    0.151923
    37  O   -0.315524
    38  H    0.146250
    39  H    0.147557
 Sum of Mulliken charges =   1.00000

 Dipole moment (field-independent basis, Debye):
    X=             -8.8294    Y=              0.5152    Z=              0.5937  Tot=              8.8644
 Quadrupole moment (field-independent basis, Debye-Ang):
   XX=             15.8269   YY=            -70.1408   ZZ=            -77.3103
   XY=              1.3801   XZ=              2.9031   YZ=             -4.1736

  Exact polarizability: 198.942  -6.625 139.595 -12.062  -0.750 157.680
 Approx polarizability: 190.418  -7.138 148.516  -4.096  -4.811 185.216

                      1                      2                      3
                      A                      A                      A
 Frequencies --      5.8632                11.3492                16.9134
 Red. masses --      4.7899                 4.5414                 5.0272
 Frc consts  --      0.0001                 0.0003                 0.0008
 IR Inten    --      0.0595                 0.3186                 2.3776

                      4                      5                      6
                      A                      A                      A
 Frequencies --     17.4626                28.1813                31.1617
 Red. masses --      3.8798                 4.9874                 3.9721
 Frc consts  --      0.0007                 0.0023                 0.0023
 IR Inten    --      0.1752                 0.1940                 2.1074

                      7                      8                      9
                      A                      A                      A
 Frequencies --     38.6990                40.6429                50.4763
 Red. masses --      3.7921                 3.2340                 6.1666
 Frc consts  --      0.0033                 0.0031                 0.0093
 IR Inten    --      0.3077                 0.1938                 5.6044

                     10                     11                     12
                      A                      A                      A
 Frequencies --     94.0554                98.2735               105.4424
 Red. masses --      1.0628                 3.3508                 1.0570
 Frc consts  --      0.0055                 0.0191                 0.0069
 IR Inten    --     47.9999                 1.0178                16.0387

                     13                     14                     15
                      A                      A                      A
 Frequencies --    113.5718               142.3470               158.6903
 Red. masses --      4.0361                 5.4878                 2.0078
 Frc consts  --      0.0307                 0.0655                 0.0298
 IR Inten    --      2.6468                28.7490                 1.4247

                     16                     17                     18
                      A                      A                      A
 Frequencies --    186.1892               188.3929               196.4579
 Red. masses --      1.1210                 2.8781                 1.1572
 Frc consts  --      0.0229                 0.0602                 0.0263
 IR Inten    --     73.7767                 1.8127               262.8679

                     19                     20                     21
                      A                      A                      A
 Frequencies --    209.6659               217.7975               234.3911
 Red. masses --      1.8864                 2.0130                 1.0744
 Frc consts  --      0.0489                 0.0563                 0.0348
 IR Inten    --     63.6531                86.4027                15.7649

                     22                     23                     24
                      A                      A                      A
 Frequencies --    245.6649               248.2243               263.8452
 Red. masses --      1.1500                 1.0581                 2.7322
 Frc consts  --      0.0409                 0.0384                 0.1121
 IR Inten    --      0.8673                53.7169                 2.8851

                     25                     26                     27
                      A                      A                      A
 Frequencies --    281.5887               303.5042               350.8370
 Red. masses --      5.0504                 4.4136                 4.9230
 Frc consts  --      0.2359                 0.2395                 0.3570
 IR Inten    --     33.9426                 7.9310                18.6453

                     28                     29                     30
                      A                      A                      A
 Frequencies --    360.9208               415.3246               416.7774
 Red. masses --      2.9292                 1.2889                 2.0077
 Frc consts  --      0.2248                 0.1310                 0.2055
 IR Inten    --      9.3945                 9.7494                 8.1048

                     31                     32                     33
                      A                      A                      A
 Frequencies --    419.9737               547.5288               591.5750
 Red. masses --      3.0825                 3.8991                 3.0619
 Frc consts  --      0.3203                 0.6887                 0.6313
 IR Inten    --      2.8323                 1.3724                 0.2408

                     34                     35                     36
                      A                      A                      A
 Frequencies --    636.9638               646.4599               669.0350
 Red. masses --      5.3247                 3.1398                 4.4441
 Frc consts  --      1.2728                 0.7731                 1.1720
 IR Inten    --     52.0380                 2.8382                 3.6618

                     37                     38                     39
                      A                      A                      A
 Frequencies --    689.8811               714.2423               723.8083
 Red. masses --      1.1102                 1.9397                 1.0538
 Frc consts  --      0.3113                 0.5830                 0.3253
 IR Inten    --     20.6988                43.7284               143.4802

                     40                     41                     42
                      A                      A                      A
 Frequencies --    742.7009               775.5198               838.8503
 Red. masses --      1.0456                 1.7393                 1.6242
 Frc consts  --      0.3398                 0.6163                 0.6734
 IR Inten    --     84.4874                 5.6012                37.6723

                     43                     44                     45
                      A                      A                      A
 Frequencies --    853.2926               854.5561               924.4003
 Red. masses --      1.7411                 1.1214                 1.6847
 Frc consts  --      0.7469                 0.4825                 0.8482
 IR Inten    --     24.3963                55.0687                10.8493

                     46                     47                     48
                      A                      A                      A
 Frequencies --    935.6437               950.2423               968.3177
 Red. masses --      3.4245                 1.6077                 2.0804
 Frc consts  --      1.7663                 0.8553                 1.1493
 IR Inten    --      5.9552                 6.6460                 3.0410

                     49                     50                     51
                      A                      A                      A
 Frequencies --    985.8668              1002.3115              1042.3440
 Red. masses --      1.4504                 1.8713                 3.7988
 Frc consts  --      0.8305                 1.1076                 2.4317
 IR Inten    --      2.2463                 1.0817                 6.8998

                     52                     53                     54
                      A                      A                      A
 Frequencies --   1043.1989              1060.6214              1081.0505
 Red. masses --      1.3974                 2.3238                 1.6869
 Frc consts  --      0.8960                 1.5402                 1.1615
 IR Inten    --      1.0912                 2.0460                16.1600

                     55                     56                     57
                      A                      A                      A
 Frequencies --   1086.8817              1112.8678              1138.0985
 Red. masses --      2.1538                 2.2017                 1.3040
 Frc consts  --      1.4990                 1.6065                 0.9952
 IR Inten    --      5.2041                11.2019                 6.9955

                     58                     59                     60
                      A                      A                      A
 Frequencies --   1139.7763              1198.8726              1206.8365
 Red. masses --      1.4392                 1.5039                 1.2798
 Frc consts  --      1.1016                 1.2736                 1.0982
 IR Inten    --      3.9714                11.1022                 5.3881

                     61                     62                     63
                      A                      A                      A
 Frequencies --   1220.3601              1244.1613              1257.0332
 Red. masses --      1.5670                 1.6228                 1.6240
 Frc consts  --      1.3750                 1.4800                 1.5119
 IR Inten    --      8.5978                 7.6028                12.5432

                     64                     65                     66
                      A                      A                      A
 Frequencies --   1271.2284              1292.3689              1305.6787
 Red. masses --      1.8864                 1.7282                 1.4521
 Frc consts  --      1.7961                 1.7007                 1.4586
 IR Inten    --     20.2221                 6.9192                19.6555

                     67                     68                     69
                      A                      A                      A
 Frequencies --   1306.7941              1322.5337              1328.6035
 Red. masses --      1.1107                 1.5656                 1.4106
 Frc consts  --      1.1175                 1.6134                 1.4670
 IR Inten    --     26.0474                14.5830                 5.2768

                     70                     71                     72
                      A                      A                      A
 Frequencies --   1348.8765              1357.6554              1379.1041
 Red. masses --      1.4797                 2.0629                 1.8097
 Frc consts  --      1.5863                 2.2403                 2.0279
 IR Inten    --      4.7577                 3.2321                26.3006

                     73                     74                     75
                      A                      A                      A
 Frequencies --   1390.5361              1442.4225              1454.2988
 Red. masses --      1.6273                 1.5428                 1.4384
 Frc consts  --      1.8539                 1.8912                 1.7924
 IR Inten    --     12.7552                11.7884                 5.7584

                     76                     77                     78
                      A                      A                      A
 Frequencies --   1478.0570              1483.9644              1489.1841
 Red. masses --      1.0456                 1.0710                 1.0812
 Frc consts  --      1.3459                 1.3896                 1.4128
 IR Inten    --     12.0549                 6.2802                 3.0366

                     79                     80                     81
                      A                      A                      A
 Frequencies --   1503.6967              1516.3789              1521.9415
 Red. masses --      1.0885                 1.8812                 1.2310
 Frc consts  --      1.4501                 2.5486                 1.6799
 IR Inten    --     10.8500                34.8618                 9.8642

                     82                     83                     84
                      A                      A                      A
 Frequencies --   1618.4071              1626.2150              1630.9947
 Red. masses --      1.4884                 1.3765                 1.0996
 Frc consts  --      2.2969                 2.1448                 1.7234
 IR Inten    --     72.4417                50.3175                78.0323

                     85                     86                     87
                      A                      A                      A
 Frequencies --   1647.0485              1671.6501              1700.5133
 Red. masses --      1.1002                 1.0990                 4.6460
 Frc consts  --      1.7585                 1.8094                 7.9157
 IR Inten    --     20.0313                19.4340                 5.2787

                     88                     89                     90
                      A                      A                      A
 Frequencies --   1718.2707              2659.7424              2928.5997
 Red. masses --      2.6604                 1.1160                 1.0820
 Frc consts  --      4.6279                 4.6516                 5.4677
 IR Inten    --      7.4715              3732.4779                42.5988

                     91                     92                     93
                      A                      A                      A
 Frequencies --   2955.2878              2961.8177              3087.5366
 Red. masses --      1.0713                 1.0573                 1.0619
 Frc consts  --      5.5125                 5.4645                 5.9646
 IR Inten    --     44.9206                95.8574                18.5432

                     94                     95                     96
                      A                      A                      A
 Frequencies --   3090.5311              3101.8612              3122.5089
 Red. masses --      1.0804                 1.0644                 1.0899
 Frc consts  --      6.0798                 6.0337                 6.2611
 IR Inten    --     29.1572                22.2325                24.3321

                     97                     98                     99
                      A                      A                      A
 Frequencies --   3137.1997              3146.3849              3159.5182
 Red. masses --      1.1056                 1.1016                 1.1064
 Frc consts  --      6.4111                 6.4253                 6.5072
 IR Inten    --      2.3716                17.9271                24.8656

                    100                    101                    102
                      A                      A                      A
 Frequencies --   3219.5718              3236.6495              3241.7001
 Red. masses --      1.0919                 1.0951                 1.0928
 Frc consts  --      6.6688                 6.7591                 6.7660
 IR Inten    --      0.9833                 0.7979                 2.0012

                    103                    104                    105
                      A                      A                      A
 Frequencies --   3256.3599              3501.4247              3645.6953
 Red. masses --      1.1003                 1.0608                 1.0585
 Frc consts  --      6.8740                 7.6623                 8.2892
 IR Inten    --      0.7531              1199.0699               597.6152

                    106                    107                    108
                      A                      A                      A
 Frequencies --   3675.4048              3878.2640              3878.3717
 Red. masses --      1.0740                 1.0452                 1.0453
 Frc consts  --      8.5484                 9.2625                 9.2635
 IR Inten    --    810.5265                19.8095                28.7730

                    109                    110                    111
                      A                      A                      A
 Frequencies --   3954.4885              3983.9835              3984.6972
 Red. masses --      1.0696                 1.0828                 1.0829
 Frc consts  --      9.8550                10.1260                10.1304
 IR Inten    --     95.6439               107.0292               109.4360

 - Thermochemistry -
 -------------------
 Temperature   298.150 Kelvin.  Pressure   1.00000 Atm.
 Atom     1 has atomic number  6 and mass  12.00000

 Molecular mass:   235.16578 amu.
 Principal axes and moments of inertia in atomic units:
                           1         2         3
     Eigenvalues --  2684.21257********************
           X            1.00000   0.00111  -0.00158
           Y           -0.00112   0.99999  -0.00311
           Z            0.00158   0.00311   0.99999
 This molecule is an asymmetric top.
 Rotational symmetry number  1.
 Warning -- assumption of classical behavior for rotation
           may cause significant error
 Rotational temperatures (Kelvin)      0.03227     0.00691     0.00653
 Rotational constants (GHZ):           0.67235     0.14398     0.13598
 Zero-point vibrational energy     891158.1 (Joules/Mol)
                                  212.99191 (Kcal/Mol)
 Warning -- explicit consideration of  33 degrees of freedom as
           vibrations may cause significant error
 Vibrational temperatures:      8.44    16.33    24.33    25.12    40.55
          (Kelvin)             44.83    55.68    58.48    72.62   135.32
                              141.39   151.71   163.40   204.81   228.32
                              267.88   271.06   282.66   301.66   313.36
                              337.24   353.46   357.14   379.61   405.14
                              436.67   504.78   519.28   597.56   599.65
                              604.25   787.77   851.14   916.45   930.11
                              962.59   992.59  1027.64  1041.40  1068.58
                             1115.80  1206.92  1227.70  1229.52  1330.01
                             1346.18  1367.19  1393.19  1418.44  1442.10
                             1499.70  1500.93  1526.00  1555.39  1563.78
                             1601.17  1637.47  1639.88  1724.91  1736.37
                             1755.83  1790.07  1808.59  1829.01  1859.43
                             1878.58  1880.19  1902.83  1911.56  1940.73
                             1953.36  1984.22  2000.67  2075.32  2092.41
                             2126.59  2135.09  2142.60  2163.48  2181.73
                             2189.73  2328.53  2339.76  2346.64  2369.74
                             2405.13  2446.66  2472.21  3826.78  4213.60
                             4252.00  4261.40  4442.28  4446.58  4462.89
                             4492.59  4513.73  4526.95  4545.84  4632.25
                             4656.82  4664.08  4685.18  5037.77  5245.34
                             5288.09  5579.96  5580.11  5689.63  5732.06
                             5733.09

 Zero-point correction=                           0.339424 (Hartree/Particle)
 Thermal correction to Energy=                    0.363805
 Thermal correction to Enthalpy=                  0.364750
 Thermal correction to Gibbs Free Energy=         0.276942
 Sum of electronic and zero-point Energies=           -804.682866
 Sum of electronic and thermal Energies=              -804.658485
 Sum of electronic and thermal Enthalpies=            -804.657541
 Sum of electronic and thermal Free Energies=         -804.745348

                     E (Thermal)             CV                S
                      KCal/Mol        Cal/Mol-Kelvin    Cal/Mol-Kelvin
 Total                  228.291             81.137            184.806
 Electronic               0.000              0.000              0.000
 Translational            0.889              2.981             42.267
 Rotational               0.889              2.981             34.456
 Vibrational            226.514             75.175            108.083
 Vibration     1          0.593              1.987              9.072
 Vibration     2          0.593              1.987              7.760
 Vibration     3          0.593              1.986              6.967
 Vibration     4          0.593              1.986              6.904
 Vibration     5          0.593              1.984              5.953
 Vibration     6          0.594              1.983              5.754
 Vibration     7          0.594              1.981              5.325
 Vibration     8          0.594              1.981              5.228
 Vibration     9          0.595              1.977              4.799
 Vibration    10          0.603              1.953              3.574
 Vibration    11          0.604              1.950              3.488
 Vibration    12          0.605              1.945              3.351
 Vibration    13          0.607              1.938              3.207
 Vibration    14          0.616              1.911              2.772
 Vibration    15          0.621              1.893              2.565
 Vibration    16          0.632              1.859              2.265
 Vibration    17          0.633              1.856              2.244
 Vibration    18          0.636              1.845              2.166
 Vibration    19          0.642              1.826              2.047
 Vibration    20          0.646              1.814              1.977
 Vibration    21          0.654              1.788              1.845
 Vibration    22          0.660              1.770              1.761
 Vibration    23          0.662              1.766              1.743
 Vibration    24          0.670              1.739              1.636
 Vibration    25          0.681              1.708              1.524
 Vibration    26          0.695              1.667              1.398
 Vibration    27          0.728              1.574              1.162
 Vibration    28          0.735              1.553              1.118
 Vibration    29          0.779              1.437              0.908
 Vibration    30          0.780              1.434              0.903
 Vibration    31          0.783              1.427              0.892
 Vibration    32          0.903              1.145              0.549
 Vibration    33          0.949              1.050              0.464

 Optimization completed on the basis of negligible forces.
    -- Stationary point found.
 Normal termination of Gaussian 16 at Fri Jan 27 21:37:54 2023.
