 Gaussian 16, Revision A.03,
 Gaussian 16:  ES64L-G16RevA.03 25-Dec-2016

 -----------------------------
 # wB97XD/aug-cc-pVDZ opt freq
 -----------------------------

 ----
 blah
 ----
 Symbolic Z-matrix:
 Charge =  1 Multiplicity = 1

 SCF Done:  E(RwB97XD) =  -805.020656218     A.U. after   14 cycles
 SCF Done:  E(RwB97XD) =  -805.021267120     A.U. after   15 cycles
 SCF Done:  E(RwB97XD) =  -805.021124502     A.U. after   15 cycles
 SCF Done:  E(RwB97XD) =  -805.021749307     A.U. after   12 cycles
 SCF Done:  E(RwB97XD) =  -805.021894976     A.U. after   12 cycles
 SCF Done:  E(RwB97XD) =  -805.021712324     A.U. after   13 cycles
 SCF Done:  E(RwB97XD) =  -805.021934455     A.U. after   13 cycles
 SCF Done:  E(RwB97XD) =  -805.021992790     A.U. after   13 cycles
 SCF Done:  E(RwB97XD) =  -805.022059830     A.U. after   13 cycles
 SCF Done:  E(RwB97XD) =  -805.022087288     A.U. after   12 cycles
 SCF Done:  E(RwB97XD) =  -805.022231926     A.U. after   10 cycles
 SCF Done:  E(RwB97XD) =  -805.022232856     A.U. after   10 cycles
 SCF Done:  E(RwB97XD) =  -805.022233102     A.U. after   10 cycles
 SCF Done:  E(RwB97XD) =  -805.022233263     A.U. after    9 cycles
 SCF Done:  E(RwB97XD) =  -805.022233344     A.U. after    9 cycles
 SCF Done:  E(RwB97XD) =  -805.022233333     A.U. after    9 cycles
 SCF Done:  E(RwB97XD) =  -805.022233317     A.U. after    9 cycles
 SCF Done:  E(RwB97XD) =  -805.022233315     A.U. after    8 cycles
 SCF Done:  E(RwB97XD) =  -805.022233336     A.U. after    8 cycles
 Optimization completed.
    -- Stationary point found.
 Normal termination of Gaussian 16 at Fri Jan 27 20:32:47 2023.

 ----------------------------------------------------------------------
 #N Geom=AllCheck Guess=TCheck SCRF=Check GenChk RwB97XD/Aug-CC-pVDZ Fr
 eq
 ----------------------------------------------------------------------

 Structure from the checkpoint file:  "/gscratch/scrubbed/gds001/Gau-11589.chk"
 ----
 blah
 ----
 Charge =  1 Multiplicity = 1

                         Standard orientation:
 ---------------------------------------------------------------------
 Center     Atomic      Atomic             Coordinates (Angstroms)
 Number     Number       Type             X           Y           Z
 ---------------------------------------------------------------------
      1          6           0       -3.269309   -0.571489    1.541366
      2          6           0       -2.485792    0.371869    0.594160
      3          7           0       -3.511715    0.963108   -0.250467
      4          6           0       -4.643029    1.212582    0.638797
      5          6           0       -4.727121   -0.058157    1.484606
      6          6           0       -1.441642   -0.350495   -0.222823
      7          6           0       -0.099748   -0.305358    0.118586
      8          7           0        0.817151   -0.984637   -0.589128
      9          6           0        0.493266   -1.725484   -1.656115
     10          6           0       -0.828859   -1.808108   -2.061715
     11          6           0       -1.797403   -1.117146   -1.339522
     12          6           0       -3.072379    2.137924   -0.979472
     13          1           0       -1.973177    1.150685    1.198408
     14          1           0       -3.201406   -1.610021    1.196145
     15          1           0       -2.845869   -0.536824    2.551490
     16          1           0       -5.372969   -0.797209    0.997609
     17          1           0       -5.137966    0.139999    2.479998
     18          1           0       -4.451363    2.096737    1.280836
     19          1           0       -5.549253    1.411459    0.054585
     20          1           0       -2.846029   -1.146834   -1.635254
     21          1           0        1.313362   -2.231259   -2.160048
     22          1           0        1.843798   -0.924439   -0.291845
     23          1           0        0.279921    0.272501    0.959120
     24          1           0       -2.249952    1.880826   -1.660161
     25          1           0       -2.727203    2.945686   -0.303025
     26          1           0       -3.900412    2.524475   -1.584794
     27          1           0       -1.089953   -2.405570   -2.932109
     28          8           0        3.304197   -0.823277    0.132731
     29          1           0        3.934496   -0.147171   -0.195771
     30          1           0        3.771614   -1.429741    0.732571
     31          8           0        4.478715   -2.646079    1.852972
     32          1           0        4.703842   -2.457555    2.767820
     33          1           0        5.083724   -3.338196    1.573323
     34          8           0        4.909616    1.082494   -0.871478
     35          1           0        5.554897    0.917644   -1.561913
     36          1           0        5.224074    1.868487   -0.388910
     37          8           0        5.756485    3.339918    0.493829
     38          1           0        6.525105    3.396415    1.067449
     39          1           0        5.612664    4.229331    0.159994
 ---------------------------------------------------------------------

 SCF Done:  E(RwB97XD) =  -805.022233336     A.U. after    1 cycles

 The electronic state is 1-A.
 Alpha  occ. eigenvalues --  -19.39849 -19.39455 -19.37091 -19.36591 -14.65616
 Alpha  occ. eigenvalues --  -14.54254 -10.49525 -10.49179 -10.45837 -10.45454
 Alpha  occ. eigenvalues --  -10.45345 -10.44107 -10.40606 -10.40564 -10.39573
 Alpha  occ. eigenvalues --  -10.38270  -1.24282  -1.24044  -1.23829  -1.21734
 Alpha  occ. eigenvalues --   -1.20334  -1.14742  -1.06361  -1.03073  -0.98104
 Alpha  occ. eigenvalues --   -0.93831  -0.88809  -0.87513  -0.86482  -0.81118
 Alpha  occ. eigenvalues --   -0.77463  -0.76123  -0.74548  -0.74182  -0.73423
 Alpha  occ. eigenvalues --   -0.73393  -0.72620  -0.71955  -0.69427  -0.67430
 Alpha  occ. eigenvalues --   -0.67383  -0.66193  -0.63389  -0.63028  -0.62199
 Alpha  occ. eigenvalues --   -0.61433  -0.60935  -0.59921  -0.58846  -0.57632
 Alpha  occ. eigenvalues --   -0.56083  -0.55857  -0.55014  -0.54072  -0.53327
 Alpha  occ. eigenvalues --   -0.52651  -0.52286  -0.51482  -0.51379  -0.50922
 Alpha  occ. eigenvalues --   -0.50490  -0.49821  -0.47596  -0.40323
 Alpha virt. eigenvalues --   -0.12469  -0.09110  -0.06151  -0.04803  -0.04530
 Alpha virt. eigenvalues --   -0.04043  -0.03188  -0.02769  -0.02400  -0.02036
 Alpha virt. eigenvalues --   -0.01793  -0.01188  -0.00902  -0.00730  -0.00397

 Mulliken charges:
               1
     1  C    0.942583
     2  C    0.792967
     3  N   -0.436862
     4  C    1.197581
     5  C    0.676416
     6  C    1.276162
     7  C    0.616053
     8  N   -0.064899
     9  C    0.796426
    10  C    0.152400
    11  C    1.139538
    12  C    0.845101
    13  H   -0.809059
    14  H   -0.440491
    15  H   -0.383579
    16  H   -0.329661
    17  H   -0.281485
    18  H   -0.380071
    19  H   -0.533660
    20  H   -0.970930
    21  H   -0.668981
    22  H    0.148425
    23  H   -0.864741
    24  H   -0.339822
    25  H   -0.165884
    26  H   -0.240559
    27  H   -0.587556
    28  O   -0.484203
    29  H    0.268842
    30  H    0.199399
    31  O   -0.332944
    32  H    0.152392
    33  H    0.151087
    34  O   -0.383345
    35  H    0.134181
    36  H    0.232247
    37  O   -0.317009
    38  H    0.147655
    39  H    0.146288
 Sum of Mulliken charges =   1.00000

 Dipole moment (field-independent basis, Debye):
    X=              8.1241    Y=             -0.5906    Z=              0.2708  Tot=              8.1501
 Quadrupole moment (field-independent basis, Debye-Ang):
   XX=              1.4199   YY=            -61.1013   ZZ=            -77.0292
   XY=              8.0411   XZ=             10.2037   YZ=              2.8823

  Exact polarizability: 192.312 -12.934 150.763  -7.636  12.668 152.801
 Approx polarizability: 189.109  -6.256 162.097   1.243  19.343 172.948

                      1                      2                      3
                      A                      A                      A
 Frequencies --      5.4338                 9.6263                15.5875
 Red. masses --      4.1619                 4.7646                 4.5843
 Frc consts  --      0.0001                 0.0003                 0.0007
 IR Inten    --      0.1271                 0.3863                 1.8669

                      4                      5                      6
                      A                      A                      A
 Frequencies --     16.8374                28.5721                30.9571
 Red. masses --      4.2714                 4.7391                 3.4008
 Frc consts  --      0.0007                 0.0023                 0.0019
 IR Inten    --      0.8249                 0.7045                 1.9763

                      7                      8                      9
                      A                      A                      A
 Frequencies --     39.5174                43.8016                44.4726
 Red. masses --      3.3860                 6.7113                 4.2528
 Frc consts  --      0.0031                 0.0076                 0.0050
 IR Inten    --      0.4053                 4.3999                 0.7350

                     10                     11                     12
                      A                      A                      A
 Frequencies --     92.4623                97.6438               100.8630
 Red. masses --      1.0612                 2.0900                 1.2691
 Frc consts  --      0.0053                 0.0117                 0.0076
 IR Inten    --     45.3658                 3.9092                14.5040

                     13                     14                     15
                      A                      A                      A
 Frequencies --    113.1486               141.9823               158.0831
 Red. masses --      4.4258                 5.5045                 1.9977
 Frc consts  --      0.0334                 0.0654                 0.0294
 IR Inten    --      1.6268                28.7006                 1.0837

                     16                     17                     18
                      A                      A                      A
 Frequencies --    184.4567               188.3413               192.4738
 Red. masses --      1.1329                 2.8520                 1.1584
 Frc consts  --      0.0227                 0.0596                 0.0253
 IR Inten    --     82.5967                 3.4729               275.2122

                     19                     20                     21
                      A                      A                      A
 Frequencies --    208.7851               216.4599               231.5598
 Red. masses --      1.5537                 2.5970                 1.0752
 Frc consts  --      0.0399                 0.0717                 0.0340
 IR Inten    --     63.1113                65.4058                16.9529

                     22                     23                     24
                      A                      A                      A
 Frequencies --    244.9873               246.1093               263.4978
 Red. masses --      1.1434                 1.0584                 2.7688
 Frc consts  --      0.0404                 0.0378                 0.1133
 IR Inten    --      3.4347                56.3691                 1.5314

                     25                     26                     27
                      A                      A                      A
 Frequencies --    282.0857               303.0009               351.3716
 Red. masses --      5.1704                 4.3801                 4.7441
 Frc consts  --      0.2424                 0.2369                 0.3451
 IR Inten    --     29.9930                10.9075                14.5526

                     28                     29                     30
                      A                      A                      A
 Frequencies --    360.5938               413.8353               416.4275
 Red. masses --      2.9796                 1.0645                 2.8879
 Frc consts  --      0.2283                 0.1074                 0.2951
 IR Inten    --     12.1343                13.1894                 3.3300

                     31                     32                     33
                      A                      A                      A
 Frequencies --    419.3810               548.0383               591.7546
 Red. masses --      3.1877                 3.9017                 3.0565
 Frc consts  --      0.3303                 0.6904                 0.6306
 IR Inten    --      2.1566                 1.3840                 0.2231

                     34                     35                     36
                      A                      A                      A
 Frequencies --    637.0953               646.3522               668.5814
 Red. masses --      5.3688                 3.1278                 4.4296
 Frc consts  --      1.2839                 0.7699                 1.1666
 IR Inten    --     52.2787                 2.9440                 3.6236

                     37                     38                     39
                      A                      A                      A
 Frequencies --    690.7536               714.6830               722.6790
 Red. masses --      1.1100                 1.9437                 1.0539
 Frc consts  --      0.3120                 0.5849                 0.3243
 IR Inten    --     20.5789                43.5036               144.2397

                     40                     41                     42
                      A                      A                      A
 Frequencies --    742.5135               774.9709               840.2821
 Red. masses --      1.0436                 1.7453                 1.6600
 Frc consts  --      0.3390                 0.6176                 0.6906
 IR Inten    --     86.6585                 5.0684                30.8505

                     43                     44                     45
                      A                      A                      A
 Frequencies --    851.4779               854.7898               924.3479
 Red. masses --      1.3063                 1.3996                 1.6814
 Frc consts  --      0.5580                 0.6025                 0.8464
 IR Inten    --     37.5654                47.3096                10.7408

                     46                     47                     48
                      A                      A                      A
 Frequencies --    935.8214               950.1745               967.9564
 Red. masses --      3.4497                 1.6087                 2.0799
 Frc consts  --      1.7800                 0.8557                 1.1482
 IR Inten    --      5.9171                 6.6482                 2.8208

                     49                     50                     51
                      A                      A                      A
 Frequencies --    987.0158              1002.7321              1041.5867
 Red. masses --      1.4579                 1.8545                 3.8138
 Frc consts  --      0.8368                 1.0986                 2.4378
 IR Inten    --      2.3798                 1.1581                 6.7026

                     52                     53                     54
                      A                      A                      A
 Frequencies --   1044.2184              1060.6937              1080.7114
 Red. masses --      1.3991                 2.3181                 1.6836
 Frc consts  --      0.8988                 1.5366                 1.1585
 IR Inten    --      1.1081                 2.1472                15.9899

                     55                     56                     57
                      A                      A                      A
 Frequencies --   1086.3475              1112.6065              1137.7094
 Red. masses --      2.1450                 2.2008                 1.3180
 Frc consts  --      1.4914                 1.6051                 1.0051
 IR Inten    --      5.2891                11.1895                 7.6476

                     58                     59                     60
                      A                      A                      A
 Frequencies --   1139.2876              1198.7219              1207.0399
 Red. masses --      1.4187                 1.4995                 1.2789
 Frc consts  --      1.0849                 1.2695                 1.0979
 IR Inten    --      3.4184                10.8942                 5.0654

                     61                     62                     63
                      A                      A                      A
 Frequencies --   1220.4867              1244.0003              1257.0476
 Red. masses --      1.5628                 1.6311                 1.6281
 Frc consts  --      1.3716                 1.4872                 1.5158
 IR Inten    --      8.5585                 7.5564                12.8583

                     64                     65                     66
                      A                      A                      A
 Frequencies --   1271.2659              1292.3489              1305.2312
 Red. masses --      1.8901                 1.7220                 1.4815
 Frc consts  --      1.7997                 1.6945                 1.4871
 IR Inten    --     20.3954                 6.7828                17.7843

                     67                     68                     69
                      A                      A                      A
 Frequencies --   1306.5785              1322.3547              1328.8151
 Red. masses --      1.0938                 1.5653                 1.4038
 Frc consts  --      1.1001                 1.6126                 1.4605
 IR Inten    --     28.2329                14.7575                 5.1946

                     70                     71                     72
                      A                      A                      A
 Frequencies --   1348.6234              1357.2528              1379.1294
 Red. masses --      1.4855                 2.0853                 1.8068
 Frc consts  --      1.5919                 2.2633                 2.0248
 IR Inten    --      4.6420                 2.7383                26.3333

                     73                     74                     75
                      A                      A                      A
 Frequencies --   1390.1997              1442.3101              1453.9904
 Red. masses --      1.6310                 1.5212                 1.4571
 Frc consts  --      1.8572                 1.8644                 1.8149
 IR Inten    --     12.8160                11.6062                 6.2345

                     76                     77                     78
                      A                      A                      A
 Frequencies --   1477.4680              1483.5844              1488.6670
 Red. masses --      1.0463                 1.0713                 1.0808
 Frc consts  --      1.3456                 1.3892                 1.4113
 IR Inten    --     11.9501                 6.4768                 3.1154

                     79                     80                     81
                      A                      A                      A
 Frequencies --   1503.5635              1516.4989              1521.7851
 Red. masses --      1.0887                 1.8333                 1.2548
 Frc consts  --      1.4502                 2.4841                 1.7121
 IR Inten    --     10.6560                33.1408                11.0792

                     82                     83                     84
                      A                      A                      A
 Frequencies --   1620.9419              1624.1277              1630.0468
 Red. masses --      1.4044                 1.5034                 1.0881
 Frc consts  --      2.1740                 2.3365                 1.7034
 IR Inten    --     65.0151                62.5024                74.9719

                     85                     86                     87
                      A                      A                      A
 Frequencies --   1646.0535              1671.1960              1700.8618
 Red. masses --      1.0880                 1.0905                 4.5540
 Frc consts  --      1.7369                 1.7945                 7.7622
 IR Inten    --     16.1508                20.8990                 4.8181

                     88                     89                     90
                      A                      A                      A
 Frequencies --   1717.7142              2664.3033              2926.8739
 Red. masses --      2.7382                 1.1157                 1.0820
 Frc consts  --      4.7602                 4.6662                 5.4611
 IR Inten    --      7.8679              3717.9653                43.0771

                     91                     92                     93
                      A                      A                      A
 Frequencies --   2953.7306              2960.8978              3086.5487
 Red. masses --      1.0716                 1.0571                 1.0617
 Frc consts  --      5.5085                 5.4605                 5.9594
 IR Inten    --     47.2737                94.5609                18.9712

                     94                     95                     96
                      A                      A                      A
 Frequencies --   3091.1707              3101.7026              3122.5529
 Red. masses --      1.0794                 1.0640                 1.0900
 Frc consts  --      6.0767                 6.0310                 6.2618
 IR Inten    --     28.3954                22.1618                24.0478

                     97                     98                     99
                      A                      A                      A
 Frequencies --   3135.7868              3143.2748              3158.7865
 Red. masses --      1.1058                 1.1025                 1.1066
 Frc consts  --      6.4064                 6.4179                 6.5054
 IR Inten    --      2.5345                18.4044                24.4646

                    100                    101                    102
                      A                      A                      A
 Frequencies --   3222.4405              3234.9415              3243.5970
 Red. masses --      1.0919                 1.0951                 1.0929
 Frc consts  --      6.6801                 6.7521                 6.7749
 IR Inten    --      0.9195                 0.7594                 1.9837

                    103                    104                    105
                      A                      A                      A
 Frequencies --   3258.3707              3503.6610              3646.1393
 Red. masses --      1.1001                 1.0607                 1.0584
 Frc consts  --      6.8818                 7.6714                 8.2906
 IR Inten    --      0.8393              1175.7251               600.5017

                    106                    107                    108
                      A                      A                      A
 Frequencies --   3677.1926              3877.4931              3878.4436
 Red. masses --      1.0742                 1.0453                 1.0452
 Frc consts  --      8.5580                 9.2596                 9.2633
 IR Inten    --    798.0504                22.9915                24.8447

                    109                    110                    111
                      A                      A                      A
 Frequencies --   3954.2894              3983.1097              3985.0067
 Red. masses --      1.0696                 1.0828                 1.0829
 Frc consts  --      9.8540                10.1213                10.1320
 IR Inten    --     96.2107               106.3825               109.8033

 - Thermochemistry -
 -------------------
 Temperature   298.150 Kelvin.  Pressure   1.00000 Atm.
 Atom     1 has atomic number  6 and mass  12.00000

 Molecular mass:   235.16578 amu.
 Principal axes and moments of inertia in atomic units:
                           1         2         3
     Eigenvalues --  3313.06152********************
           X            1.00000  -0.00157  -0.00068
           Y            0.00156   0.99990  -0.01385
           Z            0.00070   0.01385   0.99990
 This molecule is an asymmetric top.
 Rotational symmetry number  1.
 Warning -- assumption of classical behavior for rotation
           may cause significant error
 Rotational temperatures (Kelvin)      0.02614     0.00756     0.00692
 Rotational constants (GHZ):           0.54474     0.15755     0.14409
 Zero-point vibrational energy     890953.3 (Joules/Mol)
                                  212.94294 (Kcal/Mol)
 Warning -- explicit consideration of  33 degrees of freedom as
           vibrations may cause significant error
 Vibrational temperatures:      7.82    13.85    22.43    24.23    41.11
          (Kelvin)             44.54    56.86    63.02    63.99   133.03
                              140.49   145.12   162.80   204.28   227.45
                              265.39   270.98   276.93   300.40   311.44
                              333.16   352.48   354.10   379.11   405.86
                              435.95   505.55   518.81   595.42   599.15
                              603.40   788.50   851.40   916.64   929.96
                              961.94   993.84  1028.27  1039.77  1068.31
                             1115.01  1208.98  1225.09  1229.85  1329.93
                             1346.44  1367.09  1392.67  1420.10  1442.71
                             1498.61  1502.40  1526.10  1554.90  1563.01
                             1600.79  1636.91  1639.18  1724.69  1736.66
                             1756.01  1789.84  1808.61  1829.07  1859.40
                             1877.94  1879.87  1902.57  1911.87  1940.37
                             1952.78  1984.26  2000.19  2075.16  2091.97
                             2125.75  2134.55  2141.86  2163.29  2181.90
                             2189.51  2332.17  2336.76  2345.27  2368.30
                             2404.48  2447.16  2471.41  3833.34  4211.12
                             4249.76  4260.07  4440.86  4447.51  4462.66
                             4492.66  4511.70  4522.47  4544.79  4636.37
                             4654.36  4666.81  4688.07  5040.99  5245.98
                             5290.66  5578.85  5580.22  5689.34  5730.81
                             5733.54

 Zero-point correction=                           0.339346 (Hartree/Particle)
 Thermal correction to Energy=                    0.363779
 Thermal correction to Enthalpy=                  0.364723
 Thermal correction to Gibbs Free Energy=         0.276393
 Sum of electronic and zero-point Energies=           -804.682887
 Sum of electronic and thermal Energies=              -804.658454
 Sum of electronic and thermal Enthalpies=            -804.657510
 Sum of electronic and thermal Free Energies=         -804.745840

                     E (Thermal)             CV                S
                      KCal/Mol        Cal/Mol-Kelvin    Cal/Mol-Kelvin
 Total                  228.275             81.173            185.905
 Electronic               0.000              0.000              0.000
 Translational            0.889              2.981             42.267
 Rotational               0.889              2.981             34.518
 Vibrational            226.497             75.211            109.120
 Vibration     1          0.593              1.987              9.223
 Vibration     2          0.593              1.987              8.087
 Vibration     3          0.593              1.986              7.129
 Vibration     4          0.593              1.986              6.976
 Vibration     5          0.593              1.984              5.926
 Vibration     6          0.594              1.984              5.767
 Vibration     7          0.594              1.981              5.283
 Vibration     8          0.595              1.980              5.079
 Vibration     9          0.595              1.980              5.049
 Vibration    10          0.602              1.955              3.607
 Vibration    11          0.603              1.951              3.501
 Vibration    12          0.604              1.948              3.438
 Vibration    13          0.607              1.939              3.214
 Vibration    14          0.615              1.911              2.777
 Vibration    15          0.621              1.894              2.573
 Vibration    16          0.631              1.861              2.283
 Vibration    17          0.633              1.856              2.244
 Vibration    18          0.634              1.850              2.204
 Vibration    19          0.642              1.827              2.054
 Vibration    20          0.645              1.816              1.989
 Vibration    21          0.653              1.793              1.867
 Vibration    22          0.660              1.771              1.766
 Vibration    23          0.661              1.769              1.758
 Vibration    24          0.670              1.740              1.638
 Vibration    25          0.681              1.707              1.521
 Vibration    26          0.694              1.668              1.400
 Vibration    27          0.728              1.572              1.160
 Vibration    28          0.735              1.553              1.120
 Vibration    29          0.777              1.440              0.913
 Vibration    30          0.780              1.435              0.904
 Vibration    31          0.782              1.428              0.894
 Vibration    32          0.903              1.144              0.548
 Vibration    33          0.949              1.049              0.464

                           ! Non-Optimized Parameters !
 Normal termination of Gaussian 16 at Fri Jan 27 21:23:05 2023.
