 Gaussian 16, Revision A.03,
 Gaussian 16:  ES64L-G16RevA.03 25-Dec-2016

 -----------------------------
 # wB97XD/aug-cc-pVDZ opt freq
 -----------------------------

 ----
 blah
 ----
 Symbolic Z-matrix:
 Charge =  1 Multiplicity = 1

 SCF Done:  E(RwB97XD) =  -805.021572481     A.U. after   14 cycles
 SCF Done:  E(RwB97XD) =  -805.022145090     A.U. after   15 cycles
 SCF Done:  E(RwB97XD) =  -805.021232865     A.U. after   15 cycles
 SCF Done:  E(RwB97XD) =  -805.022408954     A.U. after   13 cycles
 SCF Done:  E(RwB97XD) =  -805.022581006     A.U. after   15 cycles
 SCF Done:  E(RwB97XD) =  -805.022678052     A.U. after   15 cycles
 SCF Done:  E(RwB97XD) =  -805.022742817     A.U. after   12 cycles
 SCF Done:  E(RwB97XD) =  -805.022833842     A.U. after   11 cycles
 SCF Done:  E(RwB97XD) =  -805.022805410     A.U. after   12 cycles
 SCF Done:  E(RwB97XD) =  -805.022812364     A.U. after   12 cycles
 SCF Done:  E(RwB97XD) =  -805.022951330     A.U. after   10 cycles
 SCF Done:  E(RwB97XD) =  -805.022951424     A.U. after    9 cycles
 SCF Done:  E(RwB97XD) =  -805.022951517     A.U. after    9 cycles
 SCF Done:  E(RwB97XD) =  -805.022951556     A.U. after    9 cycles
 SCF Done:  E(RwB97XD) =  -805.022951560     A.U. after    8 cycles
 SCF Done:  E(RwB97XD) =  -805.022951559     A.U. after    8 cycles
 SCF Done:  E(RwB97XD) =  -805.022951556     A.U. after    8 cycles
 SCF Done:  E(RwB97XD) =  -805.022951553     A.U. after    8 cycles
 SCF Done:  E(RwB97XD) =  -805.022951550     A.U. after    8 cycles
 Optimization completed.
    -- Stationary point found.
 Normal termination of Gaussian 16 at Fri Jan 27 15:03:36 2023.

 ----------------------------------------------------------------------
 #N Geom=AllCheck Guess=TCheck SCRF=Check GenChk RwB97XD/Aug-CC-pVDZ Fr
 eq
 ----------------------------------------------------------------------

 Structure from the checkpoint file:  "/gscratch/scrubbed/gds001/Gau-4501.chk"
 ----
 blah
 ----
 Charge =  1 Multiplicity = 1

                         Standard orientation:
 ---------------------------------------------------------------------
 Center     Atomic      Atomic             Coordinates (Angstroms)
 Number     Number       Type             X           Y           Z
 ---------------------------------------------------------------------
      1          6           0        2.853996    1.974007    0.441656
      2          6           0        2.281178    0.722714    0.193050
      3          6           0        0.947368    0.696448   -0.189233
      4          7           0        0.249795    1.834887   -0.319541
      5          6           0        0.784091    3.043551   -0.092056
      6          6           0        2.108285    3.142285    0.296476
      7          6           0        3.083049   -0.557675    0.293942
      8          7           0        2.217661   -1.719664    0.451074
      9          6           0        2.879057   -2.843951   -0.205303
     10          6           0        3.433206   -2.213335   -1.475304
     11          6           0        3.925676   -0.840408   -0.985999
     12          8           0       -2.307303    1.832969   -0.967310
     13          8           0       -4.017751    1.062255    0.871945
     14          1           0        2.159176   -3.650276   -0.391199
     15          1           0        4.233369   -2.805322   -1.931468
     16          1           0        2.629864   -2.097806   -2.213670
     17          1           0        4.988133   -0.879622   -0.720030
     18          1           0        3.806614   -0.056987   -1.743021
     19          1           0        3.699376   -3.253998    0.417842
     20          1           0        3.765836   -0.447558    1.159258
     21          1           0        0.427808   -0.238507   -0.385525
     22          1           0        0.124532    3.897515   -0.225290
     23          1           0        2.544146    4.120139    0.486995
     24          1           0        3.896997    2.034542    0.754902
     25          6           0        1.814507   -1.974403    1.821183
     26          1           0       -0.766934    1.783991   -0.606567
     27          1           0       -2.993159    1.545977   -0.310644
     28          1           0       -2.703224    1.773585   -1.838765
     29          1           0       -4.598951    1.690245    1.305866
     30          1           0       -4.529166    0.227126    0.788673
     31          8           0       -5.367149   -1.252507    0.608733
     32          1           0       -5.388930   -1.904871    1.311885
     33          1           0       -6.214202   -1.337588    0.134771
     34          1           0        1.273460   -1.108468    2.226666
     35          1           0        2.678787   -2.181675    2.482190
     36          1           0        1.139716   -2.838082    1.852133
     37          8           0       -7.754784   -1.473111   -0.779102
     38          1           0       -7.907323   -2.113081   -1.479135
     39          1           0       -8.624704   -1.218092   -0.461215
 ---------------------------------------------------------------------

 SCF Done:  E(RwB97XD) =  -805.022951550     A.U. after    1 cycles

 The electronic state is 1-A.
 Alpha  occ. eigenvalues --  -19.38950 -19.38226 -19.36633 -19.36564 -14.66322
 Alpha  occ. eigenvalues --  -14.54584 -10.49862 -10.49148 -10.46578 -10.45820
 Alpha  occ. eigenvalues --  -10.45770 -10.44549 -10.41045 -10.41038 -10.40016
 Alpha  occ. eigenvalues --  -10.38794  -1.24670  -1.23335  -1.22752  -1.21268
 Alpha  occ. eigenvalues --   -1.20013  -1.15008  -1.06980  -1.03267  -0.98709
 Alpha  occ. eigenvalues --   -0.94325  -0.89380  -0.88026  -0.86815  -0.81238
 Alpha  occ. eigenvalues --   -0.78034  -0.77104  -0.74031  -0.73707  -0.73201
 Alpha  occ. eigenvalues --   -0.72462  -0.72246  -0.72020  -0.69579  -0.68332
 Alpha  occ. eigenvalues --   -0.67798  -0.66436  -0.63313  -0.63064  -0.62472
 Alpha  occ. eigenvalues --   -0.61616  -0.61133  -0.60003  -0.59141  -0.57520
 Alpha  occ. eigenvalues --   -0.56459  -0.55662  -0.55179  -0.54671  -0.53822
 Alpha  occ. eigenvalues --   -0.52134  -0.51918  -0.51811  -0.51738  -0.50614
 Alpha  occ. eigenvalues --   -0.50241  -0.49893  -0.47794  -0.40558
 Alpha virt. eigenvalues --   -0.12914  -0.09405  -0.05833  -0.04886  -0.04095
 Alpha virt. eigenvalues --   -0.03731  -0.03468  -0.02697  -0.02304  -0.02140
 Alpha virt. eigenvalues --   -0.02016  -0.01330  -0.00868  -0.00448  -0.00315

 Mulliken charges:
               1
     1  C    1.159277
     2  C    0.741564
     3  C    0.705925
     4  N   -0.021959
     5  C    0.744961
     6  C    0.276279
     7  C    0.990366
     8  N   -0.427312
     9  C    1.174885
    10  C    0.617058
    11  C    0.929580
    12  O   -0.474849
    13  O   -0.406640
    14  H   -0.514133
    15  H   -0.270621
    16  H   -0.373133
    17  H   -0.362070
    18  H   -0.445361
    19  H   -0.450473
    20  H   -0.552509
    21  H   -0.996141
    22  H   -0.652886
    23  H   -0.560322
    24  H   -0.873234
    25  C    0.793697
    26  H    0.109179
    27  H    0.299533
    28  H    0.134020
    29  H    0.127610
    30  H    0.279163
    31  O   -0.362363
    32  H    0.125847
    33  H    0.234424
    34  H   -0.290044
    35  H   -0.168952
    36  H   -0.218800
    37  O   -0.314540
    38  H    0.144535
    39  H    0.148437
 Sum of Mulliken charges =   1.00000

 Dipole moment (field-independent basis, Debye):
    X=             -4.8042    Y=              2.2797    Z=             -0.5201  Tot=              5.3430
 Quadrupole moment (field-independent basis, Debye-Ang):
   XX=             22.4681   YY=            -62.5928   ZZ=            -88.2441
   XY=             18.4779   XZ=              6.0162   YZ=              1.2850

  Exact polarizability: 174.034  -8.037 185.721   3.402   1.675 133.465
 Approx polarizability: 184.177  -1.957 190.210   9.601   3.351 148.855

                      1                      2                      3
                      A                      A                      A
 Frequencies --      6.5642                 8.5236                13.5160
 Red. masses --      4.6597                 4.8092                 4.3944
 Frc consts  --      0.0001                 0.0002                 0.0005
 IR Inten    --      0.4361                 0.4235                 1.2621

                      4                      5                      6
                      A                      A                      A
 Frequencies --     19.5500                24.1937                31.8369
 Red. masses --      3.7231                 3.2877                 3.5036
 Frc consts  --      0.0008                 0.0011                 0.0021
 IR Inten    --      0.2029                 1.0273                 0.2101

                      7                      8                      9
                      A                      A                      A
 Frequencies --     34.7339                49.1656                58.1272
 Red. masses --      5.0307                 5.0498                 5.3930
 Frc consts  --      0.0036                 0.0072                 0.0107
 IR Inten    --      2.1291                 0.5796                 0.7057

                     10                     11                     12
                      A                      A                      A
 Frequencies --     85.8734                94.0576               121.9247
 Red. masses --      1.0971                 3.3931                 3.6337
 Frc consts  --      0.0048                 0.0177                 0.0318
 IR Inten    --     22.9928                 3.1058                 2.9684

                     13                     14                     15
                      A                      A                      A
 Frequencies --    158.9975               167.0844               182.2119
 Red. masses --      1.1387                 3.5220                 3.5242
 Frc consts  --      0.0170                 0.0579                 0.0689
 IR Inten    --    211.8867                 3.9755                20.6239

                     16                     17                     18
                      A                      A                      A
 Frequencies --    205.0091               210.6383               213.5061
 Red. masses --      1.2960                 1.6127                 1.5057
 Frc consts  --      0.0321                 0.0422                 0.0404
 IR Inten    --     32.3619                 8.9549               101.2385

                     19                     20                     21
                      A                      A                      A
 Frequencies --    225.3648               242.2062               247.1975
 Red. masses --      2.4477                 1.1146                 1.1732
 Frc consts  --      0.0732                 0.0385                 0.0422
 IR Inten    --     20.2895                73.1028                 0.2750

                     22                     23                     24
                      A                      A                      A
 Frequencies --    266.0158               275.7454               289.1618
 Red. masses --      1.1159                 2.9759                 4.9155
 Frc consts  --      0.0465                 0.1333                 0.2422
 IR Inten    --    122.6055                 1.0464                21.2207

                     25                     26                     27
                      A                      A                      A
 Frequencies --    298.1005               356.8276               369.3522
 Red. masses --      3.6496                 2.8471                 4.9112
 Frc consts  --      0.1911                 0.2136                 0.3947
 IR Inten    --     13.0786                 8.3838                19.8830

                     28                     29                     30
                      A                      A                      A
 Frequencies --    412.1665               417.0455               430.1901
 Red. masses --      1.0491                 2.9982                 3.1666
 Frc consts  --      0.1050                 0.3072                 0.3453
 IR Inten    --     26.6216                 1.8762                 0.5557

                     31                     32                     33
                      A                      A                      A
 Frequencies --    478.6526               530.5683               580.1328
 Red. masses --      1.0536                 3.1086                 1.5367
 Frc consts  --      0.1422                 0.5156                 0.3047
 IR Inten    --     20.4579                 1.6467                10.8637

                     34                     35                     36
                      A                      A                      A
 Frequencies --    589.6031               621.6081               642.6735
 Red. masses --      1.6903                 4.1235                 4.9130
 Frc consts  --      0.3462                 0.9388                 1.1956
 IR Inten    --     10.3675                13.5494                14.7710

                     37                     38                     39
                      A                      A                      A
 Frequencies --    659.9455               714.0927               727.0153
 Red. masses --      3.4888                 2.0257                 1.0519
 Frc consts  --      0.8953                 0.6086                 0.3276
 IR Inten    --      3.6054                30.5316               123.5877

                     40                     41                     42
                      A                      A                      A
 Frequencies --    779.4766               837.2602               848.4715
 Red. masses --      2.5414                 1.4881                 1.0536
 Frc consts  --      0.9098                 0.6146                 0.4469
 IR Inten    --      8.7186                31.3425               129.2888

                     43                     44                     45
                      A                      A                      A
 Frequencies --    871.8319               904.1148               937.9302
 Red. masses --      2.0555                 1.8112                 3.1747
 Frc consts  --      0.9205                 0.8723                 1.6455
 IR Inten    --      4.5975                 7.9048                 6.1481

                     46                     47                     48
                      A                      A                      A
 Frequencies --    943.6858               964.1828               975.2684
 Red. masses --      1.0480                 1.9879                 1.9572
 Frc consts  --      0.5499                 1.0888                 1.0968
 IR Inten    --     59.2159                 3.4034                 4.0445

                     49                     50                     51
                      A                      A                      A
 Frequencies --    981.5314               994.3081              1033.2137
 Red. masses --      1.3134                 1.6229                 1.3828
 Frc consts  --      0.7455                 0.9453                 0.8697
 IR Inten    --      4.9438                 1.3373                 0.1944

                     52                     53                     54
                      A                      A                      A
 Frequencies --   1042.6948              1063.5635              1078.5136
 Red. masses --      3.6636                 2.0840                 1.7600
 Frc consts  --      2.3468                 1.3889                 1.2062
 IR Inten    --      3.5877                 6.5044                16.4850

                     55                     56                     57
                      A                      A                      A
 Frequencies --   1085.3724              1106.5727              1136.8944
 Red. masses --      2.1964                 1.8590                 1.2658
 Frc consts  --      1.5245                 1.3412                 0.9640
 IR Inten    --      3.2114                 8.4592                 5.2875

                     58                     59                     60
                      A                      A                      A
 Frequencies --   1141.7119              1181.4586              1206.7709
 Red. masses --      1.5030                 1.4247                 1.1684
 Frc consts  --      1.1543                 1.1717                 1.0026
 IR Inten    --      4.7221                 6.4988                 8.3265

                     61                     62                     63
                      A                      A                      A
 Frequencies --   1214.1331              1232.9174              1254.9858
 Red. masses --      1.6343                 1.9926                 1.1284
 Frc consts  --      1.4194                 1.7846                 1.0471
 IR Inten    --      3.7046                17.6156                15.6398

                     64                     65                     66
                      A                      A                      A
 Frequencies --   1256.4214              1272.3271              1284.3528
 Red. masses --      1.6754                 1.5517                 1.9554
 Frc consts  --      1.5583                 1.4800                 1.9004
 IR Inten    --     26.3930                 7.5735                29.7788

                     67                     68                     69
                      A                      A                      A
 Frequencies --   1300.3521              1307.7080              1340.1440
 Red. masses --      1.4559                 1.3559                 1.5939
 Frc consts  --      1.4505                 1.3662                 1.6866
 IR Inten    --     10.0613                 1.0606                 8.6871

                     70                     71                     72
                      A                      A                      A
 Frequencies --   1347.4262              1363.2174              1375.1352
 Red. masses --      1.4591                 2.7722                 1.6660
 Frc consts  --      1.5608                 3.0353                 1.8562
 IR Inten    --      0.8167                18.8651                14.1383

                     73                     74                     75
                      A                      A                      A
 Frequencies --   1391.7525              1431.7117              1453.6892
 Red. masses --      1.7224                 1.7784                 1.2175
 Frc consts  --      1.9657                 2.1478                 1.5158
 IR Inten    --      8.7347                42.0860                 5.3022

                     76                     77                     78
                      A                      A                      A
 Frequencies --   1477.6522              1483.7243              1491.3297
 Red. masses --      1.0472                 1.0851                 1.0705
 Frc consts  --      1.3472                 1.4074                 1.4028
 IR Inten    --     11.9922                 7.8740                 8.5493

                     79                     80                     81
                      A                      A                      A
 Frequencies --   1500.5949              1510.9387              1520.3106
 Red. masses --      1.0916                 2.2237                 1.1374
 Frc consts  --      1.4482                 2.9910                 1.5489
 IR Inten    --      7.8397                28.5752                 0.8887

                     82                     83                     84
                      A                      A                      A
 Frequencies --   1617.2429              1626.7340              1638.6957
 Red. masses --      1.7077                 1.1348                 1.1690
 Frc consts  --      2.6316                 1.7693                 1.8495
 IR Inten    --     67.3107               143.4648                21.5110

                     85                     86                     87
                      A                      A                      A
 Frequencies --   1659.3014              1685.2830              1698.5075
 Red. masses --      1.1316                 1.2482                 3.5200
 Frc consts  --      1.8356                 2.0888                 5.9831
 IR Inten    --      8.3980                 8.5375                 4.9724

                     88                     89                     90
                      A                      A                      A
 Frequencies --   1718.5027              2857.4281              2959.4600
 Red. masses --      2.4088                 1.1056                 1.0776
 Frc consts  --      4.1914                 5.3188                 5.5609
 IR Inten    --     10.3584              3034.7802                34.4884

                     91                     92                     93
                      A                      A                      A
 Frequencies --   2963.5622              2970.3368              3086.3511
 Red. masses --      1.0765                 1.0553                 1.0636
 Frc consts  --      5.5707                 5.4858                 5.9695
 IR Inten    --     40.3892                81.8552                15.3348

                     94                     95                     96
                      A                      A                      A
 Frequencies --   3087.0711              3092.8360              3119.0430
 Red. masses --      1.0818                 1.0638                 1.0913
 Frc consts  --      6.0740                 5.9953                 6.2551
 IR Inten    --     30.8854                20.0010                25.7972

                     97                     98                     99
                      A                      A                      A
 Frequencies --   3139.5299              3139.9485              3158.6782
 Red. masses --      1.1024                 1.1049                 1.1048
 Frc consts  --      6.4022                 6.4183                 6.4945
 IR Inten    --     18.4874                 8.3405                24.5141

                    100                    101                    102
                      A                      A                      A
 Frequencies --   3207.7560              3243.7410              3252.7221
 Red. masses --      1.0923                 1.0932                 1.0948
 Frc consts  --      6.6218                 6.7769                 6.8247
 IR Inten    --      0.5293                 1.2578                 7.8633

                    103                    104                    105
                      A                      A                      A
 Frequencies --   3260.8074              3308.1148              3492.2977
 Red. masses --      1.1001                 1.0653                 1.0624
 Frc consts  --      6.8917                 6.8689                 7.6343
 IR Inten    --      2.0312              1522.5832               867.4102

                    106                    107                    108
                      A                      A                      A
 Frequencies --   3652.8341              3878.6397              3951.3860
 Red. masses --      1.0594                 1.0452                 1.0674
 Frc consts  --      8.3282                 9.2638                 9.8196
 IR Inten    --    554.5378                24.4779                98.2563

                    109                    110                    111
                      A                      A                      A
 Frequencies --   3952.8849              3953.8759              3985.7744
 Red. masses --      1.0671                 1.0696                 1.0830
 Frc consts  --      9.8241                 9.8514                10.1367
 IR Inten    --     92.1550                86.2940               111.3723

 - Thermochemistry -
 -------------------
 Temperature   298.150 Kelvin.  Pressure   1.00000 Atm.
 Atom     1 has atomic number  6 and mass  12.00000

 Molecular mass:   235.16578 amu.
 Principal axes and moments of inertia in atomic units:
                           1         2         3
     Eigenvalues --  3589.26899********************
           X            0.99999  -0.00395   0.00034
           Y            0.00395   0.99999  -0.00223
           Z           -0.00033   0.00223   1.00000
 This molecule is an asymmetric top.
 Rotational symmetry number  1.
 Warning -- assumption of classical behavior for rotation
           may cause significant error
 Rotational temperatures (Kelvin)      0.02413     0.00755     0.00626
 Rotational constants (GHZ):           0.50282     0.15734     0.13039
 Zero-point vibrational energy     893276.6 (Joules/Mol)
                                  213.49822 (Kcal/Mol)
 Warning -- explicit consideration of  34 degrees of freedom as
           vibrations may cause significant error
 Vibrational temperatures:      9.44    12.26    19.45    28.13    34.81
          (Kelvin)             45.81    49.97    70.74    83.63   123.55
                              135.33   175.42   228.76   240.40   262.16
                              294.96   303.06   307.19   324.25   348.48
                              355.66   382.74   396.74   416.04   428.90
                              513.40   531.42   593.02   600.04   618.95
                              688.67   763.37   834.68   848.31   894.36
                              924.66   949.51  1027.42  1046.01  1121.49
                             1204.63  1220.76  1254.37  1300.82  1349.47
                             1357.75  1387.24  1403.19  1412.20  1430.59
                             1486.56  1500.21  1530.23  1551.74  1561.61
                             1592.11  1635.74  1642.67  1699.86  1736.27
                             1746.87  1773.89  1805.64  1807.71  1830.59
                             1847.90  1870.92  1881.50  1928.17  1938.65
                             1961.37  1978.51  2002.42  2059.91  2091.53
                             2126.01  2134.75  2145.69  2159.02  2173.90
                             2187.39  2326.85  2340.51  2357.72  2387.36
                             2424.75  2443.77  2472.54  4111.20  4258.00
                             4263.91  4273.65  4440.57  4441.61  4449.90
                             4487.61  4517.08  4517.69  4544.63  4615.25
                             4667.02  4679.94  4691.57  4759.64  5024.64
                             5255.61  5580.50  5685.16  5687.32  5688.75
                             5734.64

 Zero-point correction=                           0.340231 (Hartree/Particle)
 Thermal correction to Energy=                    0.363979
 Thermal correction to Enthalpy=                  0.364923
 Thermal correction to Gibbs Free Energy=         0.278438
 Sum of electronic and zero-point Energies=           -804.682720
 Sum of electronic and thermal Energies=              -804.658972
 Sum of electronic and thermal Enthalpies=            -804.658028
 Sum of electronic and thermal Free Energies=         -804.744514

                     E (Thermal)             CV                S
                      KCal/Mol        Cal/Mol-Kelvin    Cal/Mol-Kelvin
 Total                  228.400             80.362            182.025
 Electronic               0.000              0.000              0.000
 Translational            0.889              2.981             42.267
 Rotational               0.889              2.981             34.698
 Vibrational            226.623             74.401            105.059
 Vibration     1          0.593              1.987              8.847
 Vibration     2          0.593              1.987              8.328
 Vibration     3          0.593              1.986              7.412
 Vibration     4          0.593              1.986              6.679
 Vibration     5          0.593              1.985              6.256
 Vibration     6          0.594              1.983              5.712
 Vibration     7          0.594              1.983              5.539
 Vibration     8          0.595              1.978              4.851
 Vibration     9          0.596              1.974              4.520
 Vibration    10          0.601              1.959              3.752
 Vibration    11          0.603              1.953              3.574
 Vibration    12          0.609              1.931              3.070
 Vibration    13          0.621              1.893              2.562
 Vibration    14          0.624              1.883              2.468
 Vibration    15          0.630              1.864              2.306
 Vibration    16          0.640              1.833              2.088
 Vibration    17          0.643              1.825              2.038
 Vibration    18          0.644              1.820              2.013
 Vibration    19          0.650              1.802              1.916
 Vibration    20          0.658              1.776              1.787
 Vibration    21          0.661              1.767              1.750
 Vibration    22          0.672              1.735              1.622
 Vibration    23          0.677              1.718              1.560
 Vibration    24          0.686              1.694              1.479
 Vibration    25          0.691              1.677              1.428
 Vibration    26          0.732              1.561              1.136
 Vibration    27          0.742              1.535              1.082
 Vibration    28          0.776              1.444              0.919
 Vibration    29          0.780              1.433              0.902
 Vibration    30          0.791              1.404              0.858
 Vibration    31          0.835              1.297              0.714
 Vibration    32          0.886              1.182              0.586
 Vibration    33          0.937              1.074              0.485
 Vibration    34          0.947              1.054              0.468

                           ! Non-Optimized Parameters !
 Normal termination of Gaussian 16 at Fri Jan 27 15:53:10 2023.
