 Gaussian 16, Revision A.03,
 Gaussian 16:  ES64L-G16RevA.03 25-Dec-2016

 ---------------------------------------------
 # wB97XD/aug-cc-pVDZ opt freq temperature=180
 ---------------------------------------------

 --------
 Nicotine
 --------
 Symbolic Z-matrix:
 Charge =  1 Multiplicity = 1

 SCF Done:  E(RwB97XD) =  -805.033747388     A.U. after   16 cycles
 Optimization completed.
    -- Stationary point found.
 Normal termination of Gaussian 16 at Mon Nov 15 13:17:09 2021.

 ----------------------------------------------------------------------
 #N Geom=AllCheck Guess=TCheck SCRF=Check GenChk RwB97XD/Aug-CC-pVDZ Fr
 eq
 ----------------------------------------------------------------------

 Structure from the checkpoint file:  "/gscratch/scrubbed/gds001/Gau-322685.chk"
 --------
 Nicotine
 --------
 Charge =  1 Multiplicity = 1

                         Standard orientation:
 ---------------------------------------------------------------------
 Center     Atomic      Atomic             Coordinates (Angstroms)
 Number     Number       Type             X           Y           Z
 ---------------------------------------------------------------------
      1          6           0       -0.787260    2.685210   -0.080795
      2          6           0       -0.819675    1.307814    0.146609
      3          6           0        0.398660    0.637025    0.162746
      4          7           0        1.545910    1.294685   -0.042300
      5          6           0        1.594674    2.616565   -0.261125
      6          6           0        0.423275    3.350286   -0.278525
      7          6           0       -2.117612    0.573547    0.383854
      8          7           0       -2.283674   -0.611203   -0.468583
      9          6           0       -3.453805   -1.288549    0.110135
     10          6           0       -3.226030   -1.203618    1.625572
     11          6           0       -2.282597    0.009620    1.807098
     12          8           0        3.562267   -0.292647   -0.328185
     13          8           0        1.911544   -1.855655   -1.771581
     14          8           0       -0.231597   -2.466485   -0.191536
     15          1           0       -3.524391   -2.314391   -0.271777
     16          1           0       -4.171904   -1.076971    2.161416
     17          1           0       -2.754310   -2.116927    2.004403
     18          1           0       -2.681523    0.769024    2.487690
     19          1           0       -1.309067   -0.307159    2.200460
     20          1           0       -4.379989   -0.758560   -0.178230
     21          1           0       -2.942251    1.284755    0.180090
     22          1           0        0.488772   -0.435281    0.328892
     23          1           0        2.580027    3.046503   -0.423453
     24          1           0        0.457132    4.422534   -0.455643
     25          1           0       -1.720883    3.247848   -0.107446
     26          6           0       -2.438516   -0.302530   -1.885341
     27          1           0        2.444399    0.702873   -0.072828
     28          1           0       -1.013236   -1.867790   -0.305697
     29          1           0       -0.560827   -3.328844    0.069670
     30          1           0        3.166155   -1.015522   -0.854496
     31          1           0        4.197704   -0.668734    0.307540
     32          1           0        2.064296   -2.407726   -2.540910
     33          1           0        1.148793   -2.235099   -1.293755
     34          8           0        5.451591   -1.179045    1.470558
     35          1           0        6.378607   -1.056810    1.248165
     36          1           0        5.422456   -1.938572    2.058091
     37          1           0       -2.602709   -1.231283   -2.443598
     38          1           0       -1.525533    0.167761   -2.270776
     39          1           0       -3.294498    0.372439   -2.067059
 ---------------------------------------------------------------------

 SCF Done:  E(RwB97XD) =  -805.033747388     A.U. after    1 cycles

 The electronic state is 1-A.
 Alpha  occ. eigenvalues --  -19.39673 -19.38286 -19.37457 -19.37016 -14.66221
 Alpha  occ. eigenvalues --  -14.58012 -10.50222 -10.49810 -10.47223 -10.46730
 Alpha  occ. eigenvalues --  -10.46238 -10.46227 -10.43408 -10.43004 -10.41419
 Alpha  occ. eigenvalues --  -10.40583  -1.24859  -1.24027  -1.22856  -1.21828
 Alpha  occ. eigenvalues --   -1.20715  -1.17400  -1.07654  -1.03993  -1.00456
 Alpha  occ. eigenvalues --   -0.95634  -0.89834  -0.89430  -0.88341  -0.81888
 Alpha  occ. eigenvalues --   -0.79655  -0.79278  -0.74495  -0.74245  -0.74169
 Alpha  occ. eigenvalues --   -0.73795  -0.73229  -0.72415  -0.70768  -0.69496
 Alpha  occ. eigenvalues --   -0.68135  -0.67161  -0.65421  -0.64219  -0.63558
 Alpha  occ. eigenvalues --   -0.62824  -0.61467  -0.60808  -0.59885  -0.58673
 Alpha  occ. eigenvalues --   -0.57385  -0.57157  -0.56588  -0.56049  -0.55478
 Alpha  occ. eigenvalues --   -0.53914  -0.52814  -0.52548  -0.52006  -0.51863
 Alpha  occ. eigenvalues --   -0.51114  -0.50768  -0.48784  -0.44415
 Alpha virt. eigenvalues --   -0.13119  -0.10416  -0.06090  -0.05240  -0.04885
 Alpha virt. eigenvalues --   -0.04125  -0.03783  -0.02995  -0.02779  -0.02529
 Alpha virt. eigenvalues --   -0.01734  -0.01483  -0.01285  -0.00522  -0.00419

 Mulliken charges:
               1
     1  C    1.242905
     2  C    0.750159
     3  C    0.573484
     4  N    0.021468
     5  C    0.792914
     6  C    0.322111
     7  C    1.408515
     8  N   -1.250872
     9  C    1.258467
    10  C    0.799096
    11  C    1.013780
    12  O   -0.447285
    13  O   -0.398253
    14  O   -0.445235
    15  H   -0.567184
    16  H   -0.272087
    17  H   -0.285802
    18  H   -0.515878
    19  H   -0.298734
    20  H   -0.558540
    21  H   -0.854794
    22  H   -1.246977
    23  H   -0.631410
    24  H   -0.563050
    25  H   -0.907952
    26  C    0.943631
    27  H    0.118945
    28  H    0.538130
    29  H    0.158961
    30  H    0.227110
    31  H    0.211737
    32  H    0.164609
    33  H    0.259956
    34  O   -0.316221
    35  H    0.142766
    36  H    0.150397
    37  H   -0.212864
    38  H   -0.146262
    39  H   -0.179741
 Sum of Mulliken charges =   1.00000

 Dipole moment (field-independent basis, Debye):
    X=              1.9258    Y=              0.6106    Z=              0.7472  Tot=              2.1540
 Quadrupole moment (field-independent basis, Debye-Ang):
   XX=            -37.8793   YY=            -58.1144   ZZ=            -88.0380
   XY=             -6.2450   XZ=              7.0022   YZ=             -2.5222

  Exact polarizability: 184.429  10.311 172.637  -5.296  -5.255 132.005
 Approx polarizability: 189.561   2.506 188.696  -4.135  -7.349 145.928

                      1                      2                      3
                      A                      A                      A
 Frequencies --     17.1198                24.4016                28.6525
 Red. masses --      4.5698                 4.3332                 4.7308
 Frc consts  --      0.0008                 0.0015                 0.0023
 IR Inten    --      0.6597                 0.7832                 2.0765

                      4                      5                      6
                      A                      A                      A
 Frequencies --     45.0699                55.4543                68.9433
 Red. masses --      4.4255                 4.7041                 3.0522
 Frc consts  --      0.0053                 0.0085                 0.0085
 IR Inten    --      1.1738                 0.3983                 0.6203

                      7                      8                      9
                      A                      A                      A
 Frequencies --     78.9843                81.7463                91.7423
 Red. masses --      4.9965                 1.5074                 1.5847
 Frc consts  --      0.0184                 0.0059                 0.0079
 IR Inten    --      1.7324                 5.3459                14.9420

                     10                     11                     12
                      A                      A                      A
 Frequencies --     96.7879               117.8506               157.2208
 Red. masses --      4.4432                 4.1304                 2.0639
 Frc consts  --      0.0245                 0.0338                 0.0301
 IR Inten    --      5.5766                 1.2981                 1.2345

                     13                     14                     15
                      A                      A                      A
 Frequencies --    167.6557               172.3598               202.8903
 Red. masses --      4.8270                 4.4849                 1.1827
 Frc consts  --      0.0799                 0.0785                 0.0287
 IR Inten    --     12.4068                30.7333               152.1876

                     16                     17                     18
                      A                      A                      A
 Frequencies --    204.9782               216.5679               234.1975
 Red. masses --      3.0264                 1.2952                 1.4754
 Frc consts  --      0.0749                 0.0358                 0.0477
 IR Inten    --      2.0903                94.8011               101.1142

                     19                     20                     21
                      A                      A                      A
 Frequencies --    236.3321               245.7892               257.9753
 Red. masses --      1.8233                 1.2260                 1.2201
 Frc consts  --      0.0600                 0.0436                 0.0478
 IR Inten    --     36.4794                 3.9112                52.3350

                     22                     23                     24
                      A                      A                      A
 Frequencies --    263.9884               281.1045               311.7169
 Red. masses --      2.4932                 4.5576                 4.1641
 Frc consts  --      0.1024                 0.2122                 0.2384
 IR Inten    --      3.1812                13.2076                 2.2339

                     25                     26                     27
                      A                      A                      A
 Frequencies --    322.9954               400.9777               415.0708
 Red. masses --      5.6685                 2.8487                 2.8333
 Frc consts  --      0.3484                 0.2699                 0.2876
 IR Inten    --     28.0746                 7.9301                15.9433

                     28                     29                     30
                      A                      A                      A
 Frequencies --    421.0529               460.4359               545.7527
 Red. masses --      3.1293                 1.1021                 2.5103
 Frc consts  --      0.3269                 0.1377                 0.4405
 IR Inten    --      6.2975                29.6669                 7.3605

                     31                     32                     33
                      A                      A                      A
 Frequencies --    550.9897               581.0236               634.3225
 Red. masses --      1.2795                 2.8187                 4.1178
 Frc consts  --      0.2289                 0.5606                 0.9762
 IR Inten    --     16.0878                 0.7222                39.6651

                     34                     35                     36
                      A                      A                      A
 Frequencies --    647.1843               655.2419               674.0220
 Red. masses --      2.6238                 1.2439                 5.3966
 Frc consts  --      0.6475                 0.3147                 1.4445
 IR Inten    --      4.3399                58.0769                 8.0996

                     37                     38                     39
                      A                      A                      A
 Frequencies --    712.9049               742.9606               763.0217
 Red. masses --      1.7553                 1.1719                 1.0720
 Frc consts  --      0.5256                 0.3811                 0.3677
 IR Inten    --     72.4832               244.5138                77.0099

                     40                     41                     42
                      A                      A                      A
 Frequencies --    781.9062               829.3583               839.1129
 Red. masses --      1.4193                 1.1615                 2.3573
 Frc consts  --      0.5113                 0.4707                 0.9779
 IR Inten    --      2.3133                99.7851                 4.4336

                     43                     44                     45
                      A                      A                      A
 Frequencies --    843.2703               882.8874               934.4923
 Red. masses --      1.3598                 1.0907                 2.2116
 Frc consts  --      0.5697                 0.5009                 1.1379
 IR Inten    --     34.7928                32.4588                 7.8690

                     46                     47                     48
                      A                      A                      A
 Frequencies --    941.7487               954.1394               980.0037
 Red. masses --      2.0808                 2.3959                 1.5922
 Frc consts  --      1.0873                 1.2851                 0.9009
 IR Inten    --     19.0691                16.9335                 7.0979

                     49                     50                     51
                      A                      A                      A
 Frequencies --    985.0938              1008.9371              1033.3143
 Red. masses --      1.3261                 1.8579                 1.3901
 Frc consts  --      0.7582                 1.1143                 0.8745
 IR Inten    --      4.6169                 7.3499                 0.1535

                     52                     53                     54
                      A                      A                      A
 Frequencies --   1042.3700              1054.6931              1074.4794
 Red. masses --      4.0117                 2.3455                 1.8529
 Frc consts  --      2.5682                 1.5372                 1.2604
 IR Inten    --      9.6953                 1.1984                16.4198

                     55                     56                     57
                      A                      A                      A
 Frequencies --   1093.3387              1117.7834              1143.2604
 Red. masses --      2.1821                 2.3345                 1.2833
 Frc consts  --      1.5368                 1.7186                 0.9882
 IR Inten    --      7.6950                 9.2814                 4.0986

                     58                     59                     60
                      A                      A                      A
 Frequencies --   1150.9357              1198.7811              1215.0043
 Red. masses --      1.5028                 1.8655                 1.3125
 Frc consts  --      1.1729                 1.5795                 1.1415
 IR Inten    --      7.0503                16.2532                 8.1705

                     61                     62                     63
                      A                      A                      A
 Frequencies --   1226.6647              1242.6905              1257.7191
 Red. masses --      1.4475                 1.7273                 1.8295
 Frc consts  --      1.2832                 1.5716                 1.7051
 IR Inten    --      5.2062                 7.6260                 9.6771

                     64                     65                     66
                      A                      A                      A
 Frequencies --   1263.8861              1290.6240              1292.2953
 Red. masses --      1.7324                 1.1252                 1.5002
 Frc consts  --      1.6305                 1.1043                 1.4762
 IR Inten    --     13.1974                30.5167                 3.6052

                     67                     68                     69
                      A                      A                      A
 Frequencies --   1298.3215              1328.7512              1330.9458
 Red. masses --      1.4021                 1.4208                 1.9274
 Frc consts  --      1.3925                 1.4779                 2.0116
 IR Inten    --     11.6904                 9.0874                20.0861

                     70                     71                     72
                      A                      A                      A
 Frequencies --   1358.8713              1373.3066              1382.3580
 Red. masses --      1.3550                 1.8854                 1.5265
 Frc consts  --      1.4742                 2.0950                 1.7187
 IR Inten    --      4.6977                14.9132                 4.4245

                     73                     74                     75
                      A                      A                      A
 Frequencies --   1406.5633              1446.2122              1455.0519
 Red. masses --      1.8048                 1.4433                 1.3407
 Frc consts  --      2.1038                 1.7786                 1.6724
 IR Inten    --      4.5383                13.7518                17.2867

                     76                     77                     78
                      A                      A                      A
 Frequencies --   1483.2681              1484.8252              1488.9736
 Red. masses --      1.0463                 1.0684                 1.0740
 Frc consts  --      1.3562                 1.3879                 1.4030
 IR Inten    --     14.1599                 7.4353                 4.6742

                     79                     80                     81
                      A                      A                      A
 Frequencies --   1506.3562              1518.4789              1526.7070
 Red. masses --      1.0899                 1.6087                 1.3633
 Frc consts  --      1.4571                 2.1854                 1.8722
 IR Inten    --     10.8490                42.1770                13.9175

                     82                     83                     84
                      A                      A                      A
 Frequencies --   1606.0855              1634.8456              1637.8151
 Red. masses --      1.1384                 1.4986                 1.3198
 Frc consts  --      1.7302                 2.3599                 2.0859
 IR Inten    --     96.2869                26.2967                39.6922

                     85                     86                     87
                      A                      A                      A
 Frequencies --   1659.4711              1681.5600              1706.5138
 Red. masses --      1.1382                 1.1483                 3.8166
 Frc consts  --      1.8467                 1.9131                 6.5485
 IR Inten    --     38.7673                 9.3442                 7.2314

                     88                     89                     90
                      A                      A                      A
 Frequencies --   1728.9655              2571.1273              2969.3168
 Red. masses --      2.1454                 1.1228                 1.0835
 Frc consts  --      3.7787                 4.3732                 5.6283
 IR Inten    --     43.9011              2933.7343                45.3634

                     91                     92                     93
                      A                      A                      A
 Frequencies --   2995.1173              2997.6350              3088.8619
 Red. masses --      1.0515                 1.0701                 1.0637
 Frc consts  --      5.5577                 5.6654                 5.9795
 IR Inten    --     34.4760                89.1703                15.2135

                     94                     95                     96
                      A                      A                      A
 Frequencies --   3104.2978              3110.1839              3118.5828
 Red. masses --      1.0670                 1.0858                 1.0903
 Frc consts  --      6.0583                 6.1881                 6.2476
 IR Inten    --     15.6441                16.9120                20.4060

                     97                     98                     99
                      A                      A                      A
 Frequencies --   3145.3685              3153.1455              3163.2909
 Red. masses --      1.1045                 1.1040                 1.1059
 Frc consts  --      6.4383                 6.4670                 6.5197
 IR Inten    --      1.4054                13.0600                23.2038

                    100                    101                    102
                      A                      A                      A
 Frequencies --   3213.0156              3224.9344              3244.8411
 Red. masses --      1.0925                 1.0960                 1.0925
 Frc consts  --      6.6449                 6.7156                 6.7775
 IR Inten    --      0.1214                24.9540                 1.0574

                    103                    104                    105
                      A                      A                      A
 Frequencies --   3258.9829              3279.4744              3553.4467
 Red. masses --      1.1008                 1.0686                 1.0562
 Frc consts  --      6.8888                 6.7712                 7.8578
 IR Inten    --      2.0462              1202.5488               517.3663

                    106                    107                    108
                      A                      A                      A
 Frequencies --   3602.5921              3654.2417              3877.3376
 Red. masses --      1.0560                 1.0828                 1.0453
 Frc consts  --      8.0754                 8.5189                 9.2590
 IR Inten    --    456.6408              1057.2706                24.2197

                    109                    110                    111
                      A                      A                      A
 Frequencies --   3945.0372              3955.7311              3982.9479
 Red. masses --      1.0673                 1.0693                 1.0828
 Frc consts  --      9.7866                 9.8582                10.1203
 IR Inten    --     92.9661               118.1031               107.9982

 - Thermochemistry -
 -------------------
 Temperature   180.000 Kelvin.  Pressure   1.00000 Atm.
 Atom     1 has atomic number  6 and mass  12.00000

 Molecular mass:   235.16578 amu.
 Principal axes and moments of inertia in atomic units:
                           1         2         3
     Eigenvalues --  3294.720056518.751937963.21635
           X            0.99999  -0.00337   0.00296
           Y            0.00338   0.99999  -0.00397
           Z           -0.00294   0.00398   0.99999
 This molecule is an asymmetric top.
 Rotational symmetry number  1.
 Warning -- assumption of classical behavior for rotation
           may cause significant error
 Rotational temperatures (Kelvin)      0.02629     0.01329     0.01088
 Rotational constants (GHZ):           0.54777     0.27685     0.22663
 Zero-point vibrational energy     897917.2 (Joules/Mol)
                                  214.60736 (Kcal/Mol)
 Warning -- explicit consideration of  25 degrees of freedom as
           vibrations may cause significant error
 Vibrational temperatures:     24.63    35.11    41.22    64.85    79.79
          (Kelvin)             99.19   113.64   117.61   132.00   139.26
                              169.56   226.21   241.22   247.99   291.91
                              294.92   311.59   336.96   340.03   353.64
                              371.17   379.82   404.45   448.49   464.72
                              576.92   597.19   605.80   662.46   785.22
                              792.75   835.96   912.65   931.15   942.75
                              969.77  1025.71  1068.95  1097.82  1124.99
                             1193.26  1207.30  1213.28  1270.28  1344.53
                             1354.97  1372.79  1410.01  1417.33  1451.64
                             1486.71  1499.74  1517.47  1545.94  1573.07
                             1608.24  1644.90  1655.94  1724.78  1748.12
                             1764.90  1787.95  1809.58  1818.45  1856.92
                             1859.32  1868.00  1911.78  1914.93  1955.11
                             1975.88  1988.90  2023.73  2080.78  2093.50
                             2134.09  2136.33  2142.30  2167.31  2184.75
                             2196.59  2310.80  2352.18  2356.45  2387.61
                             2419.39  2455.29  2487.60  3699.28  4272.18
                             4309.31  4312.93  4444.18  4466.39  4474.86
                             4486.95  4525.48  4536.67  4551.27  4622.81
                             4639.96  4668.60  4688.95  4718.43  5112.62
                             5183.33  5257.64  5578.62  5676.03  5691.41
                             5730.57

 Zero-point correction=                           0.341999 (Hartree/Particle)
 Thermal correction to Energy=                    0.351829
 Thermal correction to Enthalpy=                  0.352399
 Thermal correction to Gibbs Free Energy=         0.315421
 Sum of electronic and zero-point Energies=           -804.691749
 Sum of electronic and thermal Energies=              -804.681918
 Sum of electronic and thermal Enthalpies=            -804.681348
 Sum of electronic and thermal Free Energies=         -804.718326

                     E (Thermal)             CV                S
                      KCal/Mol        Cal/Mol-Kelvin    Cal/Mol-Kelvin
 Total                  220.776             55.788            128.911
 Electronic               0.000              0.000              0.000
 Translational            0.537              2.981             39.760
 Rotational               0.537              2.981             31.998
 Vibrational            219.703             49.826             57.153
 Vibration     1          0.358              1.984              5.941
 Vibration     2          0.359              1.981              5.238
 Vibration     3          0.359              1.979              4.921
 Vibration     4          0.362              1.966              4.027
 Vibration     5          0.364              1.955              3.620
 Vibration     6          0.367              1.938              3.196
 Vibration     7          0.369              1.922              2.934
 Vibration     8          0.370              1.918              2.868
 Vibration     9          0.374              1.900              2.648
 Vibration    10          0.375              1.891              2.546
 Vibration    11          0.384              1.847              2.178
 Vibration    12          0.404              1.745              1.659
 Vibration    13          0.410              1.715              1.548
 Vibration    14          0.413              1.701              1.501
 Vibration    15          0.433              1.603              1.231
 Vibration    16          0.434              1.597              1.214
 Vibration    17          0.443              1.557              1.128
 Vibration    18          0.457              1.496              1.008
 Vibration    19          0.458              1.488              0.995
 Vibration    20          0.466              1.455              0.937
 Vibration    21          0.476              1.411              0.867
 Vibration    22          0.482              1.389              0.835
 Vibration    23          0.497              1.326              0.750
 Vibration    24          0.526              1.214              0.619
 Vibration    25          0.537              1.173              0.576

 Optimization completed.
    -- Stationary point found.
 Normal termination of Gaussian 16 at Mon Nov 15 14:13:40 2021.
