 Gaussian 16, Revision A.03,
 Gaussian 16:  ES64L-G16RevA.03 25-Dec-2016

 -----------------------------
 # wB97XD/aug-cc-pVDZ opt freq
 -----------------------------

 ----
 blah
 ----
 Symbolic Z-matrix:
 Charge =  1 Multiplicity = 1

 SCF Done:  E(RwB97XD) =  -805.016881150     A.U. after   15 cycles
 SCF Done:  E(RwB97XD) =  -805.025397977     A.U. after   13 cycles
 SCF Done:  E(RwB97XD) =  -805.028914909     A.U. after   13 cycles
 SCF Done:  E(RwB97XD) =  -805.030450488     A.U. after   13 cycles
 SCF Done:  E(RwB97XD) =  -805.031712912     A.U. after   13 cycles
 SCF Done:  E(RwB97XD) =  -805.032217182     A.U. after   13 cycles
 SCF Done:  E(RwB97XD) =  -805.033153987     A.U. after   15 cycles
 SCF Done:  E(RwB97XD) =  -805.033694229     A.U. after   15 cycles
 SCF Done:  E(RwB97XD) =  -805.033909432     A.U. after   13 cycles
 SCF Done:  E(RwB97XD) =  -805.033848983     A.U. after   12 cycles
 SCF Done:  E(RwB97XD) =  -805.038275541     A.U. after   10 cycles
 SCF Done:  E(RwB97XD) =  -805.038283459     A.U. after   11 cycles
 SCF Done:  E(RwB97XD) =  -805.038287228     A.U. after   10 cycles
 SCF Done:  E(RwB97XD) =  -805.038288867     A.U. after    9 cycles
 SCF Done:  E(RwB97XD) =  -805.038289654     A.U. after    8 cycles
 SCF Done:  E(RwB97XD) =  -805.038290000     A.U. after    9 cycles
 SCF Done:  E(RwB97XD) =  -805.038290078     A.U. after    8 cycles
 SCF Done:  E(RwB97XD) =  -805.038290293     A.U. after    9 cycles
 SCF Done:  E(RwB97XD) =  -805.038290381     A.U. after    8 cycles
 Optimization completed.
    -- Stationary point found.
 Normal termination of Gaussian 16 at Fri Feb  3 21:27:11 2023.

 ----------------------------------------------------------------------
 #N Geom=AllCheck Guess=TCheck SCRF=Check GenChk RwB97XD/Aug-CC-pVDZ Fr
 eq
 ----------------------------------------------------------------------

 Structure from the checkpoint file:  "/gscratch/scrubbed/gds001/Gau-15470.chk"
 ----
 blah
 ----
 Charge =  1 Multiplicity = 1

                         Standard orientation:
 ---------------------------------------------------------------------
 Center     Atomic      Atomic             Coordinates (Angstroms)
 Number     Number       Type             X           Y           Z
 ---------------------------------------------------------------------
      1          6           0       -0.834053    0.797245   -0.196596
      2          6           0        0.404027    1.406262   -0.418666
      3          6           0        0.448826    2.801922   -0.413580
      4          6           0       -0.717116    3.523491   -0.185137
      5          6           0       -1.896971    2.818308    0.033591
      6          7           0       -1.956527    1.483165    0.027015
      7          6           0        1.655837    0.600211   -0.651724
      8          6           0        1.572531   -0.587644   -1.619237
      9          6           0        2.653937   -1.586835   -1.139802
     10          6           0        3.234307   -0.980279    0.142859
     11          7           0        2.175248   -0.037706    0.615752
     12          8           0        0.533447   -1.917272    1.596363
     13          1           0        4.136666   -0.386537   -0.047333
     14          1           0        3.443872   -1.736366   -1.881679
     15          1           0        2.204343   -2.562438   -0.930389
     16          1           0        0.583200   -1.054176   -1.577934
     17          1           0        1.735916   -0.242366   -2.644308
     18          1           0        3.437986   -1.705107    0.936043
     19          1           0        2.459649    1.280289   -0.967266
     20          1           0       -0.934936   -0.289277   -0.201489
     21          1           0       -2.834423    3.343616    0.218716
     22          1           0       -0.717258    4.611623   -0.179809
     23          1           0        1.389507    3.324092   -0.595152
     24          6           0        2.620825    0.909502    1.657011
     25          1           0        1.419551   -0.643369    1.027242
     26          1           0        0.024464   -2.387097    0.889696
     27          1           0        0.044131   -2.020671    2.415204
     28          8           0       -4.241738   -0.131695    0.320741
     29          1           0       -3.507607    0.511872    0.219996
     30          1           0       -4.971115    0.202492   -0.206499
     31          1           0        2.995788    0.340943    2.513239
     32          1           0        1.772731    1.526943    1.966756
     33          1           0        3.418674    1.541688    1.252166
     34          8           0       -3.347185   -2.631018   -0.074308
     35          1           0       -3.889245   -3.243054    0.427148
     36          1           0       -3.734613   -1.735986    0.058578
     37          8           0       -0.760285   -2.876297   -0.491193
     38          1           0       -0.592608   -3.731147   -0.894289
     39          1           0       -1.742534   -2.827019   -0.363146
 ---------------------------------------------------------------------

 SCF Done:  E(RwB97XD) =  -805.038290381     A.U. after    1 cycles

 The electronic state is 1-A.
 Alpha  occ. eigenvalues --  -19.39762 -19.38343 -19.36444 -19.36310 -14.68645
 Alpha  occ. eigenvalues --  -14.58634 -10.49653 -10.48206 -10.48139 -10.46788
 Alpha  occ. eigenvalues --  -10.46425 -10.45343 -10.45247 -10.43642 -10.43439
 Alpha  occ. eigenvalues --  -10.43314  -1.25655  -1.24133  -1.22530  -1.21196
 Alpha  occ. eigenvalues --   -1.19834  -1.18321  -1.06413  -1.04349  -1.01372
 Alpha  occ. eigenvalues --   -0.96808  -0.94380  -0.88987  -0.85923  -0.85262
 Alpha  occ. eigenvalues --   -0.82890  -0.77815  -0.75648  -0.75034  -0.73960
 Alpha  occ. eigenvalues --   -0.73545  -0.72168  -0.71889  -0.71275  -0.69691
 Alpha  occ. eigenvalues --   -0.69320  -0.66558  -0.65573  -0.65170  -0.63040
 Alpha  occ. eigenvalues --   -0.62792  -0.62311  -0.62207  -0.61864  -0.61098
 Alpha  occ. eigenvalues --   -0.59034  -0.58868  -0.57712  -0.57485  -0.56552
 Alpha  occ. eigenvalues --   -0.55273  -0.54629  -0.53399  -0.52082  -0.50314
 Alpha  occ. eigenvalues --   -0.50025  -0.49566  -0.47869  -0.46968
 Alpha virt. eigenvalues --   -0.09834  -0.08844  -0.06763  -0.05747  -0.05096
 Alpha virt. eigenvalues --   -0.04762  -0.03452  -0.03346  -0.03225  -0.02783
 Alpha virt. eigenvalues --   -0.02498  -0.01674  -0.01322  -0.01057  -0.00661

 Mulliken charges:
               1
     1  C    1.047532
     2  C    0.595508
     3  C    1.363806
     4  C    0.504880
     5  C    0.309556
     6  N   -0.503923
     7  C    0.866796
     8  C    1.214579
     9  C    0.831587
    10  C    1.249722
    11  N   -1.169826
    12  O   -0.454396
    13  H   -0.479157
    14  H   -0.229173
    15  H   -0.325673
    16  H   -0.363015
    17  H   -0.512052
    18  H   -0.511226
    19  H   -0.909283
    20  H   -0.872498
    21  H   -0.626230
    22  H   -0.604714
    23  H   -0.924433
    24  C    1.155122
    25  H    0.274336
    26  H    0.303495
    27  H    0.191991
    28  O   -0.340119
    29  H    0.265886
    30  H    0.121043
    31  H   -0.124502
    32  H   -0.110612
    33  H   -0.123470
    34  O   -0.367552
    35  H    0.132246
    36  H    0.218979
    37  O   -0.655761
    38  H    0.183867
    39  H    0.376683
 Sum of Mulliken charges =   1.00000

 Dipole moment (field-independent basis, Debye):
    X=              4.6329    Y=              0.8701    Z=              0.9935  Tot=              4.8174
 Quadrupole moment (field-independent basis, Debye-Ang):
   XX=            -54.9896   YY=            -61.3172   ZZ=            -88.5841
   XY=              1.2989   XZ=              1.9807   YZ=             -1.3132

  Exact polarizability: 179.888 -10.026 176.741  -3.667   3.403 125.680
 Approx polarizability: 187.188  -3.112 188.117  -6.851   1.459 144.994

                      1                      2                      3
                      A                      A                      A
 Frequencies --     18.3923                25.5008                39.6844
 Red. masses --      4.9763                 4.8497                 5.2315
 Frc consts  --      0.0010                 0.0019                 0.0049
 IR Inten    --      0.9120                 1.0847                 3.4710

                      4                      5                      6
                      A                      A                      A
 Frequencies --     53.0667                61.9869                68.4008
 Red. masses --      4.1500                 6.5340                 3.4260
 Frc consts  --      0.0069                 0.0148                 0.0094
 IR Inten    --      0.5931                 4.9928                 0.3919

                      7                      8                      9
                      A                      A                      A
 Frequencies --     72.5274                85.9116                96.5160
 Red. masses --      3.6084                 4.5643                 3.4267
 Frc consts  --      0.0112                 0.0198                 0.0188
 IR Inten    --      0.7184                 2.8706                 1.2082

                     10                     11                     12
                      A                      A                      A
 Frequencies --    102.1977               148.0816               159.1413
 Red. masses --      3.3310                 2.1064                 3.8935
 Frc consts  --      0.0205                 0.0272                 0.0581
 IR Inten    --      1.2603                 0.1810                28.0030

                     13                     14                     15
                      A                      A                      A
 Frequencies --    182.0758               208.5658               227.2528
 Red. masses --      1.1718                 4.3369                 2.3062
 Frc consts  --      0.0229                 0.1112                 0.0702
 IR Inten    --     82.5243                31.8636                14.5542

                     16                     17                     18
                      A                      A                      A
 Frequencies --    233.7941               240.1327               253.2038
 Red. masses --      1.4461                 1.1337                 1.5862
 Frc consts  --      0.0466                 0.0385                 0.0599
 IR Inten    --     57.2037                29.1998                28.1930

                     19                     20                     21
                      A                      A                      A
 Frequencies --    254.9058               259.0669               307.0232
 Red. masses --      2.3695                 2.4688                 4.9173
 Frc consts  --      0.0907                 0.0976                 0.2731
 IR Inten    --     96.7034                 8.9887                20.7917

                     22                     23                     24
                      A                      A                      A
 Frequencies --    314.5392               330.4433               365.7921
 Red. masses --      1.1328                 4.2332                 4.7742
 Frc consts  --      0.0660                 0.2723                 0.3764
 IR Inten    --     69.6880                 1.0868                17.9426

                     25                     26                     27
                      A                      A                      A
 Frequencies --    383.4429               412.8598               431.3077
 Red. masses --      2.9232                 2.8608                 2.8939
 Frc consts  --      0.2532                 0.2873                 0.3172
 IR Inten    --      1.1626                 1.1153                11.7534

                     28                     29                     30
                      A                      A                      A
 Frequencies --    471.6985               494.2882               535.1167
 Red. masses --      1.0482                 1.1516                 1.5203
 Frc consts  --      0.1374                 0.1658                 0.2565
 IR Inten    --      8.9848                66.1091                15.9515

                     31                     32                     33
                      A                      A                      A
 Frequencies --    548.2786               564.1123               605.0167
 Red. masses --      1.9794                 2.4368                 1.1284
 Frc consts  --      0.3506                 0.4569                 0.2434
 IR Inten    --     14.2160                17.5955                48.8852

                     34                     35                     36
                      A                      A                      A
 Frequencies --    632.1382               652.8854               678.6747
 Red. masses --      3.4627                 5.6234                 5.5347
 Frc consts  --      0.8152                 1.4123                 1.5020
 IR Inten    --      1.0973                10.6335                 1.6319

                     37                     38                     39
                      A                      A                      A
 Frequencies --    736.2657               770.8227               790.4187
 Red. masses --      1.8875                 1.0878                 1.4225
 Frc consts  --      0.6029                 0.3808                 0.5236
 IR Inten    --     17.1720               126.8362                 4.8967

                     40                     41                     42
                      A                      A                      A
 Frequencies --    818.5612               838.7024               844.2545
 Red. masses --      1.8818                 1.4674                 1.2057
 Frc consts  --      0.7429                 0.6081                 0.5063
 IR Inten    --     12.0471                22.9084               136.6592

                     43                     44                     45
                      A                      A                      A
 Frequencies --    904.1078               918.7591               926.4936
 Red. masses --      1.0774                 2.8442                 1.1098
 Frc consts  --      0.5189                 1.4145                 0.5613
 IR Inten    --    115.2499                 4.9597                33.5686

                     46                     47                     48
                      A                      A                      A
 Frequencies --    933.6053               948.6846               980.3565
 Red. masses --      2.2409                 1.9617                 1.3577
 Frc consts  --      1.1508                 1.0402                 0.7688
 IR Inten    --     12.2059                 4.0000                 2.6035

                     49                     50                     51
                      A                      A                      A
 Frequencies --    990.3507              1001.8183              1031.5674
 Red. masses --      1.7269                 1.6575                 1.4349
 Frc consts  --      0.9979                 0.9802                 0.8997
 IR Inten    --      4.3034                 4.9543                 0.0397

                     52                     53                     54
                      A                      A                      A
 Frequencies --   1046.9507              1051.1882              1062.5348
 Red. masses --      1.8317                 4.7777                 2.5866
 Frc consts  --      1.1829                 3.1105                 1.7205
 IR Inten    --     14.8983                10.0275                 6.3370

                     55                     56                     57
                      A                      A                      A
 Frequencies --   1089.6302              1104.1286              1133.1990
 Red. masses --      2.2616                 2.2778                 1.3375
 Frc consts  --      1.5820                 1.6361                 1.0119
 IR Inten    --      1.8059                 2.1209                 2.2020

                     58                     59                     60
                      A                      A                      A
 Frequencies --   1157.1636              1157.8530              1210.9563
 Red. masses --      2.7930                 1.4058                 1.7387
 Frc consts  --      2.2035                 1.1104                 1.5022
 IR Inten    --     13.5132                10.3121                 2.5229

                     61                     62                     63
                      A                      A                      A
 Frequencies --   1225.2118              1238.3935              1246.3376
 Red. masses --      1.4599                 1.6539                 1.2889
 Frc consts  --      1.2912                 1.4944                 1.1797
 IR Inten    --      9.0307                 3.4060                10.4184

                     64                     65                     66
                      A                      A                      A
 Frequencies --   1269.5940              1287.4745              1303.5704
 Red. masses --      1.5557                 1.2514                 2.0544
 Frc consts  --      1.4774                 1.2222                 2.0569
 IR Inten    --      2.0718                 4.7395                 0.6757

                     67                     68                     69
                      A                      A                      A
 Frequencies --   1316.8563              1338.4416              1372.9524
 Red. masses --      2.1375                 1.3782                 1.3120
 Frc consts  --      2.1839                 1.4547                 1.4571
 IR Inten    --      1.7047                 1.2663                 0.9240

                     70                     71                     72
                      A                      A                      A
 Frequencies --   1376.8854              1382.7401              1411.6624
 Red. masses --      1.3923                 1.3776                 1.5122
 Frc consts  --      1.5551                 1.5518                 1.7755
 IR Inten    --      4.0532                 1.0782                 1.6167

                     73                     74                     75
                      A                      A                      A
 Frequencies --   1452.8752              1475.7102              1483.6478
 Red. masses --      1.1834                 1.1176                 1.7088
 Frc consts  --      1.4717                 1.4340                 2.2162
 IR Inten    --      2.4099                11.6343                13.3965

                     76                     77                     78
                      A                      A                      A
 Frequencies --   1484.3121              1491.0831              1494.6756
 Red. masses --      1.2140                 1.0789                 1.1215
 Frc consts  --      1.5759                 1.4133                 1.4762
 IR Inten    --     34.4063                25.9519                27.0739

                     79                     80                     81
                      A                      A                      A
 Frequencies --   1505.2178              1519.2861              1535.7721
 Red. masses --      1.0996                 1.1445                 2.1743
 Frc consts  --      1.4679                 1.5565                 3.0215
 IR Inten    --     13.5404                 8.8538                 4.7569

                     82                     83                     84
                      A                      A                      A
 Frequencies --   1600.6782              1652.0152              1657.5827
 Red. masses --      1.1367                 1.1788                 1.0944
 Frc consts  --      1.7159                 1.8955                 1.7717
 IR Inten    --     23.4150                12.6330                86.1850

                     85                     86                     87
                      A                      A                      A
 Frequencies --   1662.9915              1680.0690              1686.3631
 Red. masses --      3.4120                 1.4407                 2.5712
 Frc consts  --      5.5595                 2.3960                 4.3081
 IR Inten    --     35.3934                 7.4688                42.1280

                     88                     89                     90
                      A                      A                      A
 Frequencies --   1712.2741              2964.8018              3078.7779
 Red. masses --      1.0737                 1.0894                 1.0500
 Frc consts  --      1.8548                 5.6420                 5.8638
 IR Inten    --     23.2650              1010.0867                 3.8511

                     91                     92                     93
                      A                      A                      A
 Frequencies --   3081.7851              3101.6221              3111.3587
 Red. masses --      1.0687                 1.0636                 1.0615
 Frc consts  --      5.9803                 6.0286                 6.0546
 IR Inten    --      1.2436                 3.8180                12.1975

                     94                     95                     96
                      A                      A                      A
 Frequencies --   3116.3530              3161.1056              3174.3480
 Red. masses --      1.0635                 1.1067                 1.1060
 Frc consts  --      6.0853                 6.5159                 6.5661
 IR Inten    --      6.6097                 3.2233                 1.8776

                     97                     98                     99
                      A                      A                      A
 Frequencies --   3180.7615              3183.1107              3192.3045
 Red. masses --      1.1069                 1.1068                 1.1071
 Frc consts  --      6.5979                 6.6075                 6.6471
 IR Inten    --      0.5725                 3.3881                 1.2447

                    100                    101                    102
                      A                      A                      A
 Frequencies --   3194.8895              3199.2588              3210.7363
 Red. masses --      1.0928                 1.0914                 1.0925
 Frc consts  --      6.5718                 6.5819                 6.6354
 IR Inten    --      3.7416                 3.1227                 4.7294

                    103                    104                    105
                      A                      A                      A
 Frequencies --   3238.7249              3273.3425              3375.3428
 Red. masses --      1.0985                 1.0671                 1.0642
 Frc consts  --      6.7891                 6.7363                 7.1432
 IR Inten    --      1.6819              1142.4268               821.2021

                    106                    107                    108
                      A                      A                      A
 Frequencies --   3433.1728              3502.5823              3939.7304
 Red. masses --      1.0638                 1.0630                 1.0663
 Frc consts  --      7.3873                 7.6838                 9.7514
 IR Inten    --   1415.7821               726.0324                89.3471

                    109                    110                    111
                      A                      A                      A
 Frequencies --   3943.9281              3946.6305              3953.0824
 Red. masses --      1.0677                 1.0672                 1.0675
 Frc consts  --      9.7850                 9.7939                 9.8287
 IR Inten    --    117.1469                85.2910               109.7447

 - Thermochemistry -
 -------------------
 Temperature   298.150 Kelvin.  Pressure   1.00000 Atm.
 Atom     1 has atomic number  6 and mass  12.00000

 Molecular mass:   235.16578 amu.
 Principal axes and moments of inertia in atomic units:
                           1         2         3
     Eigenvalues --  3758.063864856.124827334.81237
           X            0.99979   0.02048   0.00195
           Y           -0.02049   0.99977   0.00593
           Z           -0.00182  -0.00597   0.99998
 This molecule is an asymmetric top.
 Rotational symmetry number  1.
 Warning -- assumption of classical behavior for rotation
           may cause significant error
 Rotational temperatures (Kelvin)      0.02305     0.01784     0.01181
 Rotational constants (GHZ):           0.48023     0.37164     0.24605
 Zero-point vibrational energy     905506.2 (Joules/Mol)
                                  216.42118 (Kcal/Mol)
 Warning -- explicit consideration of  33 degrees of freedom as
           vibrations may cause significant error
 Vibrational temperatures:     26.46    36.69    57.10    76.35    89.19
          (Kelvin)             98.41   104.35   123.61   138.87   147.04
                              213.06   228.97   261.97   300.08   326.97
                              336.38   345.50   364.30   366.75   372.74
                              441.74   452.55   475.43   526.29   551.69
                              594.01   620.56   678.67   711.17   769.91
                              788.85   811.63   870.48   909.51   939.36
                              976.46  1059.32  1109.04  1137.24  1177.73
                             1206.71  1214.69  1300.81  1321.89  1333.02
                             1343.25  1364.95  1410.51  1424.89  1441.39
                             1484.20  1506.33  1512.43  1528.75  1567.73
                             1588.59  1630.42  1664.90  1665.89  1742.30
                             1762.81  1781.77  1793.20  1826.66  1852.39
                             1875.55  1894.66  1925.72  1975.37  1981.03
                             1989.45  2031.07  2090.36  2123.22  2134.64
                             2135.59  2145.34  2150.50  2165.67  2185.91
                             2209.63  2303.02  2376.88  2384.89  2392.67
                             2417.24  2426.30  2463.58  4265.69  4429.67
                             4434.00  4462.54  4476.55  4483.74  4548.13
                             4567.18  4576.41  4579.79  4593.01  4596.73
                             4603.02  4619.53  4659.80  4709.61  4856.37
                             4939.57  5039.43  5668.39  5674.43  5678.32
                             5687.60

 Zero-point correction=                           0.344889 (Hartree/Particle)
 Thermal correction to Energy=                    0.366525
 Thermal correction to Enthalpy=                  0.367469
 Thermal correction to Gibbs Free Energy=         0.292500
 Sum of electronic and zero-point Energies=           -804.693401
 Sum of electronic and thermal Energies=              -804.671765
 Sum of electronic and thermal Enthalpies=            -804.670821
 Sum of electronic and thermal Free Energies=         -804.745791

                     E (Thermal)             CV                S
                      KCal/Mol        Cal/Mol-Kelvin    Cal/Mol-Kelvin
 Total                  229.998             77.280            157.786
 Electronic               0.000              0.000              0.000
 Translational            0.889              2.981             42.267
 Rotational               0.889              2.981             33.259
 Vibrational            228.220             71.318             82.260
 Vibration     1          0.593              1.986              6.801
 Vibration     2          0.593              1.985              6.152
 Vibration     3          0.594              1.981              5.275
 Vibration     4          0.596              1.976              4.700
 Vibration     5          0.597              1.972              4.393
 Vibration     6          0.598              1.969              4.199
 Vibration     7          0.599              1.967              4.084
 Vibration     8          0.601              1.959              3.751
 Vibration     9          0.603              1.952              3.523
 Vibration    10          0.604              1.947              3.412
 Vibration    11          0.617              1.905              2.697
 Vibration    12          0.621              1.892              2.560
 Vibration    13          0.630              1.864              2.307
 Vibration    14          0.642              1.828              2.056
 Vibration    15          0.651              1.799              1.901
 Vibration    16          0.654              1.789              1.850
 Vibration    17          0.657              1.779              1.802
 Vibration    18          0.664              1.757              1.708
 Vibration    19          0.665              1.755              1.696
 Vibration    20          0.668              1.747              1.668
 Vibration    21          0.697              1.660              1.378
 Vibration    22          0.702              1.646              1.338
 Vibration    23          0.713              1.615              1.258
 Vibration    24          0.739              1.543              1.097
 Vibration    25          0.753              1.506              1.026
 Vibration    26          0.777              1.442              0.917
 Vibration    27          0.792              1.402              0.854
 Vibration    28          0.829              1.313              0.733
 Vibration    29          0.850              1.263              0.673
 Vibration    30          0.890              1.172              0.576
 Vibration    31          0.904              1.143              0.548
 Vibration    32          0.920              1.109              0.516
 Vibration    33          0.964              1.021              0.441

                           ! Non-Optimized Parameters !
 Normal termination of Gaussian 16 at Fri Feb  3 22:36:51 2023.
