 Gaussian 16, Revision A.03,
 Gaussian 16:  ES64L-G16RevA.03 25-Dec-2016

 -----------------------------
 # wB97XD/aug-cc-pVDZ opt freq
 -----------------------------

 ----
 blah
 ----
 Symbolic Z-matrix:
 Charge =  1 Multiplicity = 1

 SCF Done:  E(RwB97XD) =  -805.032001744     A.U. after   15 cycles
 SCF Done:  E(RwB97XD) =  -805.032699792     A.U. after   12 cycles
 SCF Done:  E(RwB97XD) =  -805.032995404     A.U. after   12 cycles
 SCF Done:  E(RwB97XD) =  -805.033200100     A.U. after   11 cycles
 SCF Done:  E(RwB97XD) =  -805.033297966     A.U. after   12 cycles
 SCF Done:  E(RwB97XD) =  -805.033407151     A.U. after   11 cycles
 SCF Done:  E(RwB97XD) =  -805.033447994     A.U. after   11 cycles
 SCF Done:  E(RwB97XD) =  -805.033481626     A.U. after   10 cycles
 SCF Done:  E(RwB97XD) =  -805.033519171     A.U. after   11 cycles
 SCF Done:  E(RwB97XD) =  -805.033527345     A.U. after   10 cycles
 SCF Done:  E(RwB97XD) =  -805.033559284     A.U. after    9 cycles
 SCF Done:  E(RwB97XD) =  -805.033559329     A.U. after    8 cycles
 SCF Done:  E(RwB97XD) =  -805.033559364     A.U. after    8 cycles
 SCF Done:  E(RwB97XD) =  -805.033559385     A.U. after    8 cycles
 SCF Done:  E(RwB97XD) =  -805.033559398     A.U. after    8 cycles
 SCF Done:  E(RwB97XD) =  -805.033559408     A.U. after    8 cycles
 SCF Done:  E(RwB97XD) =  -805.033559420     A.U. after    8 cycles
 SCF Done:  E(RwB97XD) =  -805.033559430     A.U. after    8 cycles
 SCF Done:  E(RwB97XD) =  -805.033559439     A.U. after    8 cycles
 Optimization completed.
    -- Stationary point found.
 Normal termination of Gaussian 16 at Mon Jan 30 18:59:15 2023.

 ----------------------------------------------------------------------
 #N Geom=AllCheck Guess=TCheck SCRF=Check GenChk RwB97XD/Aug-CC-pVDZ Fr
 eq
 ----------------------------------------------------------------------

 Structure from the checkpoint file:  "/gscratch/scrubbed/gds001/Gau-29309.chk"
 ----
 blah
 ----
 Charge =  1 Multiplicity = 1

                         Standard orientation:
 ---------------------------------------------------------------------
 Center     Atomic      Atomic             Coordinates (Angstroms)
 Number     Number       Type             X           Y           Z
 ---------------------------------------------------------------------
      1          7           0        2.361988   -0.334758    0.693124
      2          6           0        2.136486    0.571745   -0.446779
      3          6           0        2.283592   -0.328615   -1.698596
      4          6           0        2.932261   -1.629499   -1.176636
      5          6           0        3.401349   -1.262234    0.227172
      6          6           0        0.814723    1.294169   -0.319151
      7          6           0       -0.380522    0.591673   -0.421751
      8          7           0       -1.556907    1.211351   -0.277290
      9          6           0       -1.656754    2.527932   -0.037500
     10          6           0       -0.509981    3.291386    0.066952
     11          6           0        0.730587    2.664671   -0.072848
     12          8           0       -3.404687   -0.585371   -0.576300
     13          8           0        0.207531   -1.961427    1.444463
     14          1           0        3.475885   -2.119241    0.907410
     15          1           0        3.754453   -1.974121   -1.811315
     16          1           0        2.187865   -2.432791   -1.121909
     17          1           0        2.910800    0.173817   -2.442399
     18          1           0        1.318248   -0.525782   -2.177382
     19          1           0        4.386314   -0.759555    0.198690
     20          1           0        2.934141    1.338194   -0.459600
     21          1           0       -0.438982   -0.476205   -0.627638
     22          1           0       -2.661282    2.931667    0.061781
     23          1           0       -0.585656    4.359251    0.257420
     24          1           0        1.644754    3.253111    0.011833
     25          6           0        2.713098    0.364510    1.923166
     26          1           0       -2.423565    0.586135   -0.357233
     27          1           0        0.986609   -1.407134    1.191593
     28          1           0        0.439473   -2.436253    2.244817
     29          1           0       -2.907474   -1.424810   -0.566013
     30          1           0       -4.269387   -0.723730   -0.149154
     31          8           0       -1.446511   -2.486308   -0.609511
     32          1           0       -1.420786   -3.358274   -1.008334
     33          1           0       -0.877906   -2.514834    0.187234
     34          1           0        2.902108   -0.365930    2.718677
     35          1           0        1.881903    1.005468    2.242856
     36          1           0        3.618027    0.986656    1.799497
     37          8           0       -5.912134   -0.798360    0.541319
     38          1           0       -6.669835   -0.893683   -0.042326
     39          1           0       -6.163896   -1.220814    1.366703
 ---------------------------------------------------------------------

 SCF Done:  E(RwB97XD) =  -805.033559439     A.U. after    1 cycles

 The electronic state is 1-A.
 Alpha  occ. eigenvalues --  -19.39763 -19.38015 -19.37856 -19.37080 -14.66378
 Alpha  occ. eigenvalues --  -14.57862 -10.50308 -10.49775 -10.47216 -10.46563
 Alpha  occ. eigenvalues --  -10.46265 -10.46113 -10.43139 -10.43133 -10.41193
 Alpha  occ. eigenvalues --  -10.40272  -1.24951  -1.24112  -1.22914  -1.21731
 Alpha  occ. eigenvalues --   -1.20924  -1.17172  -1.07617  -1.04041  -1.00323
 Alpha  occ. eigenvalues --   -0.95580  -0.89815  -0.89477  -0.88278  -0.81811
 Alpha  occ. eigenvalues --   -0.79666  -0.78975  -0.74513  -0.74285  -0.74239
 Alpha  occ. eigenvalues --   -0.73763  -0.73335  -0.72567  -0.70518  -0.69297
 Alpha  occ. eigenvalues --   -0.68247  -0.67319  -0.65283  -0.64297  -0.63629
 Alpha  occ. eigenvalues --   -0.63005  -0.61423  -0.60389  -0.60150  -0.58659
 Alpha  occ. eigenvalues --   -0.57487  -0.57056  -0.56316  -0.55948  -0.55398
 Alpha  occ. eigenvalues --   -0.53641  -0.52899  -0.52606  -0.52129  -0.51760
 Alpha  occ. eigenvalues --   -0.51090  -0.50921  -0.48778  -0.44218
 Alpha virt. eigenvalues --   -0.13078  -0.10420  -0.06098  -0.05176  -0.04936
 Alpha virt. eigenvalues --   -0.04098  -0.03859  -0.02973  -0.02738  -0.02179
 Alpha virt. eigenvalues --   -0.01971  -0.01714  -0.00887  -0.00724  -0.00391

 Mulliken charges:
               1
     1  N   -1.380059
     2  C    0.827798
     3  C    1.197693
     4  C    0.777833
     5  C    1.391895
     6  C    0.847011
     7  C    0.770628
     8  N    0.081762
     9  C    0.780501
    10  C    0.399343
    11  C    1.244111
    12  O   -0.418216
    13  O   -0.435068
    14  H   -0.514054
    15  H   -0.322243
    16  H   -0.282223
    17  H   -0.466087
    18  H   -0.433259
    19  H   -0.445088
    20  H   -0.817520
    21  H   -1.229502
    22  H   -0.668275
    23  H   -0.581385
    24  H   -0.896607
    25  C    1.041351
    26  H    0.152079
    27  H    0.434084
    28  H    0.170435
    29  H    0.196505
    30  H    0.221026
    31  O   -0.494594
    32  H    0.203221
    33  H    0.252228
    34  H   -0.216405
    35  H   -0.171082
    36  H   -0.187911
    37  O   -0.327137
    38  H    0.144210
    39  H    0.153001
 Sum of Mulliken charges =   1.00000

 Dipole moment (field-independent basis, Debye):
    X=             -2.6881    Y=              1.2239    Z=              1.6216  Tot=              3.3695
 Quadrupole moment (field-independent basis, Debye-Ang):
   XX=            -30.7563   YY=            -61.2177   ZZ=            -89.4270
   XY=              5.0897   XZ=             -3.8889   YZ=             -1.8154

  Exact polarizability: 185.434  -9.404 173.232   0.130   6.049 129.874
 Approx polarizability: 189.625  -1.943 187.924  -0.416   6.173 146.879

                      1                      2                      3
                      A                      A                      A
 Frequencies --     11.8693                22.8486                29.8509
 Red. masses --      4.2515                 3.8427                 5.0645
 Frc consts  --      0.0004                 0.0012                 0.0027
 IR Inten    --      0.2462                 2.8795                 0.6182

                      4                      5                      6
                      A                      A                      A
 Frequencies --     46.8214                54.8039                67.4826
 Red. masses --      3.4938                 4.1430                 4.6196
 Frc consts  --      0.0045                 0.0073                 0.0124
 IR Inten    --      1.1312                 2.3903                 1.0262

                      7                      8                      9
                      A                      A                      A
 Frequencies --     70.0403                87.5535                99.8744
 Red. masses --      4.8654                 5.3445                 2.9727
 Frc consts  --      0.0141                 0.0241                 0.0175
 IR Inten    --      0.4478                 1.2080                 2.7532

                     10                     11                     12
                      A                      A                      A
 Frequencies --    104.0997               123.4551               161.8539
 Red. masses --      1.1756                 3.9453                 4.7458
 Frc consts  --      0.0075                 0.0354                 0.0732
 IR Inten    --     17.2382                 4.7123                 1.7958

                     13                     14                     15
                      A                      A                      A
 Frequencies --    169.5729               196.6763               209.6817
 Red. masses --      4.9531                 1.7550                 1.2562
 Frc consts  --      0.0839                 0.0400                 0.0325
 IR Inten    --     35.0361                 5.3395                24.5745

                     16                     17                     18
                      A                      A                      A
 Frequencies --    215.1903               216.3601               240.4184
 Red. masses --      1.5835                 1.6711                 4.0853
 Frc consts  --      0.0432                 0.0461                 0.1391
 IR Inten    --    144.4424               106.0200                49.6038

                     19                     20                     21
                      A                      A                      A
 Frequencies --    249.0402               258.8522               265.7402
 Red. masses --      1.1483                 1.2863                 1.6997
 Frc consts  --      0.0420                 0.0508                 0.0707
 IR Inten    --      7.3431                 3.4207                35.3568

                     22                     23                     24
                      A                      A                      A
 Frequencies --    272.6188               286.0838               323.8177
 Red. masses --      1.4046                 5.0301                 5.0848
 Frc consts  --      0.0615                 0.2426                 0.3141
 IR Inten    --     80.3919                11.9566                20.6007

                     25                     26                     27
                      A                      A                      A
 Frequencies --    332.5930               394.3613               403.6610
 Red. masses --      4.5032                 2.8519                 2.7546
 Frc consts  --      0.2935                 0.2613                 0.2644
 IR Inten    --      6.9382                 8.7033                12.4440

                     28                     29                     30
                      A                      A                      A
 Frequencies --    420.8040               456.5523               547.5387
 Red. masses --      2.8698                 1.1096                 1.6631
 Frc consts  --      0.2994                 0.1363                 0.2938
 IR Inten    --      1.0220                25.1879                15.0725

                     31                     32                     33
                      A                      A                      A
 Frequencies --    566.1618               586.9834               633.4156
 Red. masses --      1.8859                 2.4721                 4.0090
 Frc consts  --      0.3562                 0.5018                 0.9477
 IR Inten    --      8.0812                 7.3338                17.2097

                     34                     35                     36
                      A                      A                      A
 Frequencies --    644.8300               651.3867               655.0359
 Red. masses --      1.1886                 3.0077                 3.4157
 Frc consts  --      0.2912                 0.7519                 0.8635
 IR Inten    --     60.0733                11.1710                16.4386

                     37                     38                     39
                      A                      A                      A
 Frequencies --    719.6556               747.2454               772.8735
 Red. masses --      1.8835                 1.1068                 1.3847
 Frc consts  --      0.5747                 0.3641                 0.4873
 IR Inten    --     46.3468               229.1833                60.2764

                     40                     41                     42
                      A                      A                      A
 Frequencies --    785.0063               814.0269               837.0163
 Red. masses --      1.3582                 1.0484                 1.5776
 Frc consts  --      0.4931                 0.4093                 0.6512
 IR Inten    --     90.2061                46.5634                43.5691

                     43                     44                     45
                      A                      A                      A
 Frequencies --    851.5954               865.1967               919.0159
 Red. masses --      1.4193                 1.3669                 1.8292
 Frc consts  --      0.6065                 0.6029                 0.9103
 IR Inten    --     21.4780                36.5699                10.5468

                     46                     47                     48
                      A                      A                      A
 Frequencies --    935.3460               960.6511               981.3730
 Red. masses --      3.1060                 2.3280                 1.3876
 Frc consts  --      1.6010                 1.2658                 0.7874
 IR Inten    --     12.6231                 8.8473                 4.0478

                     49                     50                     51
                      A                      A                      A
 Frequencies --    988.6985              1008.2931              1033.4351
 Red. masses --      1.6212                 1.6825                 1.4398
 Frc consts  --      0.9337                 1.0078                 0.9060
 IR Inten    --      5.5995                 9.5941                 0.7990

                     52                     53                     54
                      A                      A                      A
 Frequencies --   1044.7423              1064.6184              1074.1798
 Red. masses --      3.3739                 2.0605                 1.9983
 Frc consts  --      2.1697                 1.3760                 1.3585
 IR Inten    --      7.6849                13.4176                 5.3553

                     55                     56                     57
                      A                      A                      A
 Frequencies --   1095.1695              1108.1293              1141.4544
 Red. masses --      2.1213                 2.1458                 1.2621
 Frc consts  --      1.4991                 1.5524                 0.9688
 IR Inten    --      7.7222                 7.8191                 5.3464

                     58                     59                     60
                      A                      A                      A
 Frequencies --   1150.5787              1186.5725              1204.6705
 Red. masses --      1.5006                 1.7291                 1.1056
 Frc consts  --      1.1704                 1.4344                 0.9453
 IR Inten    --      8.3905                 9.7842                29.8786

                     61                     62                     63
                      A                      A                      A
 Frequencies --   1213.7725              1227.2814              1240.3335
 Red. masses --      1.4323                 1.4195                 1.8294
 Frc consts  --      1.2432                 1.2597                 1.6582
 IR Inten    --     10.6164                 6.2285                20.7397

                     64                     65                     66
                      A                      A                      A
 Frequencies --   1257.1536              1267.9270              1276.2516
 Red. masses --      1.7332                 1.6654                 1.7538
 Frc consts  --      1.6139                 1.5775                 1.6831
 IR Inten    --      2.0736                14.3627                 9.1985

                     67                     68                     69
                      A                      A                      A
 Frequencies --   1309.8913              1331.7770              1338.6346
 Red. masses --      1.3251                 2.1907                 1.4176
 Frc consts  --      1.3395                 2.2893                 1.4966
 IR Inten    --      3.3043                28.9589                 0.0667

                     70                     71                     72
                      A                      A                      A
 Frequencies --   1357.4408              1379.6549              1383.0824
 Red. masses --      1.3981                 1.7997                 1.5804
 Frc consts  --      1.5179                 2.0183                 1.7812
 IR Inten    --      2.3251                10.8679                 6.6110

                     73                     74                     75
                      A                      A                      A
 Frequencies --   1402.0022              1448.7253              1457.9467
 Red. masses --      1.6898                 1.2647                 1.6945
 Frc consts  --      1.9570                 1.5639                 2.1222
 IR Inten    --      4.8403                 3.6223                29.5435

                     76                     77                     78
                      A                      A                      A
 Frequencies --   1483.9413              1486.5041              1490.8896
 Red. masses --      1.0489                 1.0695                 1.0746
 Frc consts  --      1.3609                 1.3924                 1.4073
 IR Inten    --     12.7603                 8.7168                10.0686

                     79                     80                     81
                      A                      A                      A
 Frequencies --   1505.1513              1517.5641              1527.0764
 Red. masses --      1.1046                 1.2879                 1.6789
 Frc consts  --      1.4745                 1.7475                 2.3067
 IR Inten    --      8.9663                24.7771                37.5455

                     82                     83                     84
                      A                      A                      A
 Frequencies --   1616.4440              1635.1346              1644.1393
 Red. masses --      1.0866                 1.0895                 2.6375
 Frc consts  --      1.6728                 1.7163                 4.2007
 IR Inten    --     73.2037                56.6177                43.4727

                     85                     86                     87
                      A                      A                      A
 Frequencies --   1660.0397              1688.7801              1710.6773
 Red. masses --      1.0753                 1.0766                 4.8077
 Frc consts  --      1.7458                 1.8090                 8.2894
 IR Inten    --      9.3582                12.5624                 3.3029

                     88                     89                     90
                      A                      A                      A
 Frequencies --   1743.0006              2669.1275              2982.6684
 Red. masses --      1.8211                 1.1127                 1.0840
 Frc consts  --      3.2596                 4.6706                 5.6818
 IR Inten    --     96.7207              2611.6914                36.3836

                     91                     92                     93
                      A                      A                      A
 Frequencies --   2993.3806              2997.9076              3092.2397
 Red. masses --      1.0707                 1.0499                 1.0643
 Frc consts  --      5.6524                 5.5593                 5.9960
 IR Inten    --     54.5691                75.5093                13.0127

                     94                     95                     96
                      A                      A                      A
 Frequencies --   3102.9002              3106.7830              3123.0606
 Red. masses --      1.0640                 1.0866                 1.0931
 Frc consts  --      6.0360                 6.1794                 6.2819
 IR Inten    --     19.6054                17.9270                17.0014

                     97                     98                     99
                      A                      A                      A
 Frequencies --   3146.2774              3148.3755              3163.6460
 Red. masses --      1.1047                 1.1039                 1.1051
 Frc consts  --      6.4430                 6.4468                 6.5169
 IR Inten    --      1.4514                14.6811                25.1725

                    100                    101                    102
                      A                      A                      A
 Frequencies --   3208.8198              3229.7371              3244.9937
 Red. masses --      1.0927                 1.0966                 1.0927
 Frc consts  --      6.6288                 6.7395                 6.7794
 IR Inten    --      0.5732                30.3825                 0.7766

                    103                    104                    105
                      A                      A                      A
 Frequencies --   3260.6436              3307.4668              3543.4610
 Red. masses --      1.1004                 1.0676                 1.0620
 Frc consts  --      6.8931                 6.8812                 7.8566
 IR Inten    --      1.6419              1168.0592               600.5960

                    106                    107                    108
                      A                      A                      A
 Frequencies --   3605.7173              3667.8680              3875.5855
 Red. masses --      1.0457                 1.0879                 1.0453
 Frc consts  --      8.0099                 8.6231                 9.2506
 IR Inten    --    303.9203              1068.9374                24.3460

                    109                    110                    111
                      A                      A                      A
 Frequencies --   3950.6956              3953.2521              3981.2245
 Red. masses --      1.0674                 1.0688                 1.0828
 Frc consts  --      9.8161                 9.8413                10.1117
 IR Inten    --     94.4848               116.3044               110.4492

 - Thermochemistry -
 -------------------
 Temperature   298.150 Kelvin.  Pressure   1.00000 Atm.
 Atom     1 has atomic number  7 and mass  14.00307

 Molecular mass:   235.16578 amu.
 Principal axes and moments of inertia in atomic units:
                           1         2         3
     Eigenvalues --  3080.578516490.300398129.50004
           X            0.99999   0.00379   0.00038
           Y           -0.00380   0.99996   0.00815
           Z           -0.00035  -0.00815   0.99997
 This molecule is an asymmetric top.
 Rotational symmetry number  1.
 Warning -- assumption of classical behavior for rotation
           may cause significant error
 Rotational temperatures (Kelvin)      0.02812     0.01335     0.01065
 Rotational constants (GHZ):           0.58584     0.27807     0.22200
 Zero-point vibrational energy     899140.3 (Joules/Mol)
                                  214.89969 (Kcal/Mol)
 Warning -- explicit consideration of  32 degrees of freedom as
           vibrations may cause significant error
 Vibrational temperatures:     17.08    32.87    42.95    67.37    78.85
          (Kelvin)             97.09   100.77   125.97   143.70   149.78
                              177.62   232.87   243.98   282.97   301.69
                              309.61   311.29   345.91   358.31   372.43
                              382.34   392.24   411.61   465.90   478.53
                              567.40   580.78   605.44   656.88   787.79
                              814.58   844.54   911.34   927.77   937.20
                              942.45  1035.42  1075.12  1111.99  1129.45
                             1171.20  1204.28  1225.26  1244.83  1322.26
                             1345.75  1382.16  1411.98  1422.52  1450.71
                             1486.88  1503.15  1531.75  1545.51  1575.70
                             1594.35  1642.30  1655.43  1707.21  1733.25
                             1746.35  1765.78  1784.56  1808.76  1824.26
                             1836.24  1884.64  1916.13  1926.00  1953.05
                             1985.02  1989.95  2017.17  2084.39  2097.66
                             2135.06  2138.75  2145.06  2165.58  2183.44
                             2197.12  2325.70  2352.59  2365.55  2388.43
                             2429.78  2461.28  2507.79  3840.28  4291.39
                             4306.81  4313.32  4449.04  4464.38  4469.97
                             4493.39  4526.79  4529.81  4551.78  4616.78
                             4646.87  4668.82  4691.34  4758.71  5098.25
                             5187.82  5277.24  5576.10  5684.17  5687.85
                             5728.09

 Zero-point correction=                           0.342464 (Hartree/Particle)
 Thermal correction to Energy=                    0.364759
 Thermal correction to Enthalpy=                  0.365703
 Thermal correction to Gibbs Free Energy=         0.288325
 Sum of electronic and zero-point Energies=           -804.691095
 Sum of electronic and thermal Energies=              -804.668801
 Sum of electronic and thermal Enthalpies=            -804.667856
 Sum of electronic and thermal Free Energies=         -804.745234

                     E (Thermal)             CV                S
                      KCal/Mol        Cal/Mol-Kelvin    Cal/Mol-Kelvin
 Total                  228.890             78.451            162.855
 Electronic               0.000              0.000              0.000
 Translational            0.889              2.981             42.267
 Rotational               0.889              2.981             33.452
 Vibrational            227.112             72.489             87.137
 Vibration     1          0.593              1.987              7.671
 Vibration     2          0.593              1.985              6.370
 Vibration     3          0.594              1.984              5.839
 Vibration     4          0.595              1.979              4.947
 Vibration     5          0.596              1.976              4.636
 Vibration     6          0.598              1.970              4.225
 Vibration     7          0.598              1.968              4.152
 Vibration     8          0.601              1.958              3.714
 Vibration     9          0.604              1.949              3.457
 Vibration    10          0.605              1.946              3.376
 Vibration    11          0.610              1.929              3.046
 Vibration    12          0.622              1.889              2.528
 Vibration    13          0.625              1.880              2.440
 Vibration    14          0.636              1.845              2.164
 Vibration    15          0.642              1.826              2.046
 Vibration    16          0.645              1.818              1.999
 Vibration    17          0.645              1.816              1.989
 Vibration    18          0.657              1.779              1.800
 Vibration    19          0.662              1.764              1.737
 Vibration    20          0.668              1.748              1.669
 Vibration    21          0.672              1.736              1.624
 Vibration    22          0.676              1.724              1.580
 Vibration    23          0.684              1.700              1.497
 Vibration    24          0.708              1.628              1.291
 Vibration    25          0.715              1.610              1.247
 Vibration    26          0.761              1.482              0.984
 Vibration    27          0.769              1.462              0.949
 Vibration    28          0.783              1.425              0.889
 Vibration    29          0.815              1.346              0.776
 Vibration    30          0.903              1.145              0.549
 Vibration    31          0.922              1.104              0.512
 Vibration    32          0.944              1.060              0.473

                           ! Non-Optimized Parameters !
 Normal termination of Gaussian 16 at Mon Jan 30 20:05:09 2023.
