 Gaussian 16, Revision A.03,
 Gaussian 16:  ES64L-G16RevA.03 25-Dec-2016

 -----------------------------------------
 # wB97XD/aug-cc-pVDZ Temperature=130 Freq
 -----------------------------------------

 ---------------------------
 p-Py Nicotine, W anti, 4H2O
 ---------------------------
 Symbolic Z-matrix:
 Charge =  1 Multiplicity = 1

                         Standard orientation:
 ---------------------------------------------------------------------
 Center     Atomic      Atomic             Coordinates (Angstroms)
 Number     Number       Type             X           Y           Z
 ---------------------------------------------------------------------
      1          6           0       -0.175302    2.558497    0.349992
      2          6           0        0.273503    1.339553   -0.159601
      3          6           0       -0.675656    0.502593   -0.731068
      4          7           0       -1.963086    0.862341   -0.777487
      5          6           0       -2.415883    2.023020   -0.282963
      6          6           0       -1.523716    2.910449    0.284876
      7          6           0        1.724409    0.928734   -0.087412
      8          7           0        1.920398   -0.356595    0.599578
      9          6           0        3.329230   -0.679078    0.326984
     10          6           0        3.514915   -0.330681   -1.155778
     11          6           0        2.411218    0.714391   -1.448208
     12          8           0       -3.418974   -1.284933   -1.390866
     13          8           0       -1.993248   -2.714185    0.443387
     14          8           0        0.495347   -2.430566   -0.508268
     15          1           0        3.528949   -1.731101    0.564867
     16          1           0        4.518542    0.060803   -1.348710
     17          1           0        3.382563   -1.216212   -1.787387
     18          1           0        2.804416    1.657400   -1.841884
     19          1           0        1.691415    0.328990   -2.180502
     20          1           0        3.988655   -0.060305    0.962227
     21          1           0        2.264939    1.719297    0.468624
     22          1           0       -0.440026   -0.476613   -1.144012
     23          1           0       -3.485837    2.199484   -0.351855
     24          1           0       -1.881466    3.855832    0.684943
     25          1           0        0.536925    3.241268    0.813854
     26          6           0        1.597986   -0.315104    2.023766
     27          1           0       -2.631730    0.145728   -1.141690
     28          1           0        1.051907   -1.715996   -0.088966
     29          1           0        1.088415   -3.126873   -0.798296
     30          1           0       -3.036651   -1.968826   -0.805179
     31          1           0       -3.758011   -1.722752   -2.174267
     32          1           0       -2.196181   -3.572599    0.823221
     33          1           0       -1.057477   -2.751213    0.137575
     34          1           0       -2.028901   -1.197340    1.610497
     35          8           0       -1.911291   -0.302488    1.968509
     36          1           0       -2.322580   -0.316728    2.835579
     37          1           0        1.822684   -1.290505    2.470923
     38          1           0        0.528382   -0.113163    2.159674
     39          1           0        2.190996    0.454332    2.550494
 ---------------------------------------------------------------------

 SCF Done:  E(RwB97XD) =  -805.035951634     A.U. after   16 cycles

 The electronic state is 1-A.
 Alpha  occ. eigenvalues --  -19.40144 -19.39780 -19.39004 -19.37069 -14.67050
 Alpha  occ. eigenvalues --  -14.58054 -10.50429 -10.50085 -10.47223 -10.46678
 Alpha  occ. eigenvalues --  -10.46226 -10.46217 -10.43433 -10.42344 -10.41505
 Alpha  occ. eigenvalues --  -10.40678  -1.25642  -1.24847  -1.23703  -1.22770
 Alpha  occ. eigenvalues --   -1.21182  -1.17361  -1.07803  -1.04198  -1.00423
 Alpha  occ. eigenvalues --   -0.95760  -0.90202  -0.89395  -0.88407  -0.82319
 Alpha  occ. eigenvalues --   -0.79730  -0.79544  -0.76071  -0.75406  -0.74352
 Alpha  occ. eigenvalues --   -0.74314  -0.73064  -0.72344  -0.70854  -0.69431
 Alpha  occ. eigenvalues --   -0.68375  -0.67530  -0.65433  -0.64332  -0.63615
 Alpha  occ. eigenvalues --   -0.63295  -0.62047  -0.61379  -0.59224  -0.58925
 Alpha  occ. eigenvalues --   -0.58440  -0.57684  -0.56994  -0.56248  -0.55493
 Alpha  occ. eigenvalues --   -0.54010  -0.53718  -0.53180  -0.52785  -0.52526
 Alpha  occ. eigenvalues --   -0.52011  -0.50291  -0.48655  -0.44509
 Alpha virt. eigenvalues --   -0.13262  -0.10429  -0.06647  -0.05371  -0.04875
 Alpha virt. eigenvalues --   -0.04635  -0.03676  -0.03093  -0.03067  -0.02675
 Alpha virt. eigenvalues --   -0.02352  -0.01420  -0.00996  -0.00534  -0.00404

 Mulliken charges:
               1
     1  C    1.136665
     2  C    0.730530
     3  C    0.974643
     4  N   -0.048072
     5  C    0.679205
     6  C    0.486918
     7  C    1.368044
     8  N   -1.533905
     9  C    1.273548
    10  C    0.801057
    11  C    1.041138
    12  O   -0.418124
    13  O   -0.664176
    14  O   -0.442758
    15  H   -0.563944
    16  H   -0.275822
    17  H   -0.287297
    18  H   -0.522450
    19  H   -0.303557
    20  H   -0.547919
    21  H   -0.830170
    22  H   -1.294506
    23  H   -0.654977
    24  H   -0.573532
    25  H   -0.930836
    26  C    1.173912
    27  H    0.040856
    28  H    0.554881
    29  H    0.159690
    30  H    0.235039
    31  H    0.172291
    32  H    0.229464
    33  H    0.371345
    34  H    0.234715
    35  O   -0.394994
    36  H    0.187840
    37  H   -0.211011
    38  H   -0.218207
    39  H   -0.135523
 Sum of Mulliken charges =   1.00000

 Dipole moment (field-independent basis, Debye):
    X=             -1.8233    Y=             -0.1025    Z=             -0.3833  Tot=              1.8659
 Quadrupole moment (field-independent basis, Debye-Ang):
   XX=            -61.6965   YY=            -59.4217   ZZ=            -84.5029
   XY=             -0.4876   XZ=              1.9930   YZ=              2.4010

  Exact polarizability: 184.447  -9.363 163.051   1.961   8.782 134.883
 Approx polarizability: 188.890  -4.884 182.367   4.839  16.103 153.348

                      1                      2                      3
                      A                      A                      A
 Frequencies --     40.0697                43.5128                58.5455
 Red. masses --      4.6726                 3.8170                 4.6212
 Frc consts  --      0.0044                 0.0043                 0.0093
 IR Inten    --      1.1401                 0.4221                 0.8737

                      4                      5                      6
                      A                      A                      A
 Frequencies --     62.3458                73.0695                77.9765
 Red. masses --      5.2850                 4.9828                 2.5931
 Frc consts  --      0.0121                 0.0157                 0.0093
 IR Inten    --      0.8833                 0.2944                 0.4497

                      7                      8                      9
                      A                      A                      A
 Frequencies --     91.5880               107.1269               119.7707
 Red. masses --      5.0783                 4.5534                 4.2648
 Frc consts  --      0.0251                 0.0308                 0.0360
 IR Inten    --      3.6505                 3.0791                 1.6246

                     10                     11                     12
                      A                      A                      A
 Frequencies --    151.3419               162.8036               173.7435
 Red. masses --      4.6993                 2.1250                 4.7386
 Frc consts  --      0.0634                 0.0332                 0.0843
 IR Inten    --      6.2471                 5.3431                 9.6535

                     13                     14                     15
                      A                      A                      A
 Frequencies --    191.9554               200.2856               212.2689
 Red. masses --      2.4975                 1.5452                 2.6246
 Frc consts  --      0.0542                 0.0365                 0.0697
 IR Inten    --     32.2952                45.6620                13.1208

                     16                     17                     18
                      A                      A                      A
 Frequencies --    223.5905               230.4031               249.3981
 Red. masses --      4.7132                 1.1098                 1.3117
 Frc consts  --      0.1388                 0.0347                 0.0481
 IR Inten    --     30.5411                83.3594                69.5419

                     19                     20                     21
                      A                      A                      A
 Frequencies --    252.7213               262.3275               275.9750
 Red. masses --      3.3648                 2.3200                 1.2847
 Frc consts  --      0.1266                 0.0941                 0.0576
 IR Inten    --     52.0949                 5.9017                 3.0775

                     22                     23                     24
                      A                      A                      A
 Frequencies --    301.6225               318.1912               343.5721
 Red. masses --      3.7953                 4.0450                 1.1303
 Frc consts  --      0.2034                 0.2413                 0.0786
 IR Inten    --     19.0481                 0.6361                 6.2798

                     25                     26                     27
                      A                      A                      A
 Frequencies --    405.1613               412.4244               416.3167
 Red. masses --      2.8441                 2.7871                 2.9779
 Frc consts  --      0.2751                 0.2793                 0.3041
 IR Inten    --      2.9354                11.1055                17.7240

                     28                     29                     30
                      A                      A                      A
 Frequencies --    437.4717               488.3354               516.7019
 Red. masses --      1.0841                 1.1114                 1.1173
 Frc consts  --      0.1222                 0.1562                 0.1757
 IR Inten    --     53.4234                50.6496               148.5001

                     31                     32                     33
                      A                      A                      A
 Frequencies --    550.2067               577.5345               584.3939
 Red. masses --      3.1087                 1.9366                 1.4001
 Frc consts  --      0.5545                 0.3806                 0.2817
 IR Inten    --     20.9564                 2.9265                12.4391

                     34                     35                     36
                      A                      A                      A
 Frequencies --    618.3524               639.5946               653.8514
 Red. masses --      1.2782                 4.1939                 2.5341
 Frc consts  --      0.2879                 1.0108                 0.6383
 IR Inten    --     52.8036                11.3167                21.7306

                     37                     38                     39
                      A                      A                      A
 Frequencies --    672.9027               709.3888               767.7164
 Red. masses --      5.2979                 1.9267                 1.1178
 Frc consts  --      1.4134                 0.5713                 0.3882
 IR Inten    --      4.9020                44.9180               229.5270

                     40                     41                     42
                      A                      A                      A
 Frequencies --    782.1562               833.5850               839.9931
 Red. masses --      1.4143                 1.5515                 2.3246
 Frc consts  --      0.5098                 0.6352                 0.9664
 IR Inten    --      6.0752                36.6864                 1.4846

                     43                     44                     45
                      A                      A                      A
 Frequencies --    874.2650               927.1463               934.3529
 Red. masses --      1.0619                 1.5287                 2.6187
 Frc consts  --      0.4782                 0.7742                 1.3470
 IR Inten    --     49.2164                18.9260                 4.5682

                     46                     47                     48
                      A                      A                      A
 Frequencies --    953.2867               963.6380               975.1819
 Red. masses --      2.3518                 1.2645                 1.3007
 Frc consts  --      1.2592                 0.6918                 0.7288
 IR Inten    --     12.3783                51.5775                 0.9238

                     49                     50                     51
                      A                      A                      A
 Frequencies --    979.0292              1010.3734              1030.9157
 Red. masses --      1.5385                 1.9356                 1.3887
 Frc consts  --      0.8688                 1.1642                 0.8696
 IR Inten    --      0.6918                 8.4205                 0.2606

                     52                     53                     54
                      A                      A                      A
 Frequencies --   1046.4808              1055.8652              1077.6498
 Red. masses --      4.0309                 2.3727                 1.8378
 Frc consts  --      2.6009                 1.5585                 1.2575
 IR Inten    --      3.7748                 1.9799                15.9096

                     55                     56                     57
                      A                      A                      A
 Frequencies --   1093.6466              1117.0704              1148.6768
 Red. masses --      2.1854                 2.3485                 1.3582
 Frc consts  --      1.5401                 1.7266                 1.0559
 IR Inten    --      2.3121                 8.1729                 3.1965

                     58                     59                     60
                      A                      A                      A
 Frequencies --   1153.3069              1171.5213              1195.5796
 Red. masses --      1.3804                 1.1226                 1.8981
 Frc consts  --      1.0818                 0.9078                 1.5985
 IR Inten    --     11.4732                42.1226                15.8491

                     61                     62                     63
                      A                      A                      A
 Frequencies --   1215.5262              1228.7091              1243.7406
 Red. masses --      1.2809                 1.4417                 1.7012
 Frc consts  --      1.1150                 1.2824                 1.5505
 IR Inten    --      7.7812                 5.0922                 6.3207

                     64                     65                     66
                      A                      A                      A
 Frequencies --   1257.1249              1264.2503              1291.7217
 Red. masses --      1.8512                 1.6884                 1.5665
 Frc consts  --      1.7237                 1.5900                 1.5400
 IR Inten    --     16.8979                 7.4179                 3.8045

                     67                     68                     69
                      A                      A                      A
 Frequencies --   1298.8842              1327.3280              1328.7816
 Red. masses --      1.3602                 1.6178                 1.4828
 Frc consts  --      1.3521                 1.6793                 1.5425
 IR Inten    --      9.6720                18.3103                 2.4473

                     70                     71                     72
                      A                      A                      A
 Frequencies --   1359.3499              1377.6852              1381.7723
 Red. masses --      1.3438                 2.0529                 1.5376
 Frc consts  --      1.4630                 2.2957                 1.7297
 IR Inten    --      4.1735                13.2374                 5.1957

                     73                     74                     75
                      A                      A                      A
 Frequencies --   1400.4973              1439.3127              1459.2997
 Red. masses --      1.9522                 1.5549                 1.1951
 Frc consts  --      2.2560                 1.8978                 1.4995
 IR Inten    --      1.6579                23.7608                 4.8446

                     76                     77                     78
                      A                      A                      A
 Frequencies --   1486.6097              1491.4559              1494.7239
 Red. masses --      1.0782                 1.0571                 1.0515
 Frc consts  --      1.4039                 1.3855                 1.3842
 IR Inten    --      3.6149                11.6398                10.2066

                     79                     80                     81
                      A                      A                      A
 Frequencies --   1507.0390              1518.0807              1526.5729
 Red. masses --      1.0922                 1.6404                 1.3373
 Frc consts  --      1.4615                 2.2274                 1.8361
 IR Inten    --     10.2398                30.2926                 9.7908

                     82                     83                     84
                      A                      A                      A
 Frequencies --   1623.4991              1632.9567              1664.3376
 Red. masses --      1.5052                 1.3824                 1.0705
 Frc consts  --      2.3375                 2.1719                 1.7470
 IR Inten    --    109.0784                11.0264                39.9628

                     85                     86                     87
                      A                      A                      A
 Frequencies --   1665.1608              1689.7206              1708.8350
 Red. masses --      1.0785                 1.0917                 3.3733
 Frc consts  --      1.7619                 1.8364                 5.8036
 IR Inten    --     73.0520                 6.8334                22.9477

                     88                     89                     90
                      A                      A                      A
 Frequencies --   1718.3272              2971.1049              2993.3425
 Red. masses --      3.9242                 1.0837                 1.0490
 Frc consts  --      6.8268                 5.6362                 5.5376
 IR Inten    --      6.3733                69.3964                88.1663

                     91                     92                     93
                      A                      A                      A
 Frequencies --   2999.2042              3065.5339              3089.2832
 Red. masses --      1.0712                 1.0946                 1.0635
 Frc consts  --      5.6773                 6.0606                 5.9800
 IR Inten    --     83.6405              1029.0994                16.9481

                     94                     95                     96
                      A                      A                      A
 Frequencies --   3102.3956              3109.4180              3116.9348
 Red. masses --      1.0669                 1.0867                 1.0907
 Frc consts  --      6.0502                 6.1906                 6.2432
 IR Inten    --     25.1548                29.5035                75.6375

                     97                     98                     99
                      A                      A                      A
 Frequencies --   3129.8085              3144.0265              3153.3593
 Red. masses --      1.0731                 1.1045                 1.1050
 Frc consts  --      6.1936                 6.4326                 6.4737
 IR Inten    --   1555.1344                 2.0702                34.6968

                    100                    101                    102
                      A                      A                      A
 Frequencies --   3162.1308              3209.8378              3231.8226
 Red. masses --      1.1056                 1.0927                 1.0963
 Frc consts  --      6.5132                 6.6331                 6.7462
 IR Inten    --     22.3189                 1.2653                84.3226

                    103                    104                    105
                      A                      A                      A
 Frequencies --   3246.8834              3265.0545              3443.2981
 Red. masses --      1.0934                 1.1003                 1.0634
 Frc consts  --      6.7912                 6.9110                 7.4287
 IR Inten    --      1.4396                 3.0348               733.2277

                    106                    107                    108
                      A                      A                      A
 Frequencies --   3575.8556              3717.9541              3934.9319
 Red. masses --      1.0613                 1.0571                 1.0674
 Frc consts  --      7.9953                 8.6091                 9.7380
 IR Inten    --    475.7521               337.6249                98.7101

                    109                    110                    111
                      A                      A                      A
 Frequencies --   3941.1322              3949.4590              3951.7942
 Red. masses --      1.0667                 1.0705                 1.0707
 Frc consts  --      9.7621                 9.8385                 9.8516
 IR Inten    --    104.4276               183.1596                55.4819

 - Thermochemistry -
 -------------------
 Temperature   130.000 Kelvin.  Pressure   1.00000 Atm.
 Atom     1 has atomic number  6 and mass  12.00000

 Molecular mass:   235.16578 amu.
 Principal axes and moments of inertia in atomic units:
                           1         2         3
     Eigenvalues --  3157.741264853.854246090.12139
           X            0.99994   0.01077  -0.00126
           Y           -0.01076   0.99992   0.00705
           Z            0.00134  -0.00703   0.99997
 This molecule is an asymmetric top.
 Rotational symmetry number  1.
 Warning -- assumption of classical behavior for rotation
           may cause significant error
 Rotational temperatures (Kelvin)      0.02743     0.01784     0.01422
 Rotational constants (GHZ):           0.57153     0.37182     0.29634
 Zero-point vibrational energy     902846.5 (Joules/Mol)
                                  215.78549 (Kcal/Mol)
 Warning -- explicit consideration of  20 degrees of freedom as
           vibrations may cause significant error
 Vibrational temperatures:     57.65    62.61    84.23    89.70   105.13
          (Kelvin)            112.19   131.77   154.13   172.32   217.75
                              234.24   249.98   276.18   288.17   305.41
                              321.70   331.50   358.83   363.61   377.43
                              397.07   433.97   457.81   494.32   582.94
                              593.39   598.99   629.42   702.61   743.42
                              791.62   830.94   840.81   889.67   920.23
                              940.75   968.16  1020.65  1104.57  1125.35
                             1199.34  1208.56  1257.87  1333.96  1344.33
                             1371.57  1386.46  1403.07  1408.60  1453.70
                             1483.26  1505.65  1519.15  1550.50  1573.51
                             1607.22  1652.69  1659.35  1685.56  1720.17
                             1748.87  1767.84  1789.47  1808.72  1818.97
                             1858.50  1868.80  1909.73  1911.82  1955.80
                             1982.18  1988.06  2015.00  2070.85  2099.61
                             2138.90  2145.87  2150.57  2168.29  2184.18
                             2196.40  2335.85  2349.46  2394.61  2395.80
                             2431.13  2458.63  2472.29  4274.76  4306.75
                             4315.19  4410.62  4444.79  4463.66  4473.76
                             4484.57  4503.10  4523.55  4536.98  4549.60
                             4618.24  4649.87  4671.54  4697.69  4954.14
                             5144.86  5349.31  5661.49  5670.41  5682.39
                             5685.75

 Zero-point correction=                           0.343876 (Hartree/Particle)
 Thermal correction to Energy=                    0.349005
 Thermal correction to Enthalpy=                  0.349417
 Thermal correction to Gibbs Free Energy=         0.328384
 Sum of electronic and zero-point Energies=           -804.692076
 Sum of electronic and thermal Energies=              -804.686946
 Sum of electronic and thermal Enthalpies=            -804.686535
 Sum of electronic and thermal Free Energies=         -804.707567

                     E (Thermal)             CV                S
                      KCal/Mol        Cal/Mol-Kelvin    Cal/Mol-Kelvin
 Total                  219.004             43.345            101.524
 Electronic               0.000              0.000              0.000
 Translational            0.388              2.981             38.143
 Rotational               0.388              2.981             30.427
 Vibrational            218.229             37.383             32.954
 Vibration     1          0.263              1.955              3.619
 Vibration     2          0.263              1.949              3.458
 Vibration     3          0.267              1.919              2.884
 Vibration     4          0.269              1.910              2.764
 Vibration     5          0.272              1.882              2.462
 Vibration     6          0.274              1.868              2.341
 Vibration     7          0.280              1.825              2.043
 Vibration     8          0.288              1.770              1.761
 Vibration     9          0.295              1.720              1.567
 Vibration    10          0.316              1.581              1.179
 Vibration    11          0.325              1.527              1.066
 Vibration    12          0.333              1.473              0.968
 Vibration    13          0.349              1.382              0.826
 Vibration    14          0.356              1.340              0.768
 Vibration    15          0.367              1.279              0.692
 Vibration    16          0.378              1.222              0.627
 Vibration    17          0.385              1.187              0.591
 Vibration    18          0.405              1.092              0.500
 Vibration    19          0.408              1.075              0.486
 Vibration    20          0.419              1.028              0.447

 Normal termination of Gaussian 16 at Thu Aug 27 14:00:59 2020.
