 Gaussian 16, Revision A.03,
 Gaussian 16:  ES64L-G16RevA.03 25-Dec-2016

 -----------------------------
 # wB97XD/aug-cc-pVDZ opt freq
 -----------------------------

 ----
 blah
 ----
 Symbolic Z-matrix:
 Charge =  1 Multiplicity = 1

 SCF Done:  E(RwB97XD) =  -805.020791220     A.U. after   14 cycles
 SCF Done:  E(RwB97XD) =  -805.021251585     A.U. after   15 cycles
 SCF Done:  E(RwB97XD) =  -805.021199238     A.U. after   15 cycles
 SCF Done:  E(RwB97XD) =  -805.021768903     A.U. after   12 cycles
 SCF Done:  E(RwB97XD) =  -805.021843288     A.U. after   14 cycles
 SCF Done:  E(RwB97XD) =  -805.021583545     A.U. after   15 cycles
 SCF Done:  E(RwB97XD) =  -805.021866685     A.U. after   15 cycles
 SCF Done:  E(RwB97XD) =  -805.021987802     A.U. after   13 cycles
 SCF Done:  E(RwB97XD) =  -805.022018455     A.U. after   11 cycles
 SCF Done:  E(RwB97XD) =  -805.022005077     A.U. after   12 cycles
 SCF Done:  E(RwB97XD) =  -805.022095218     A.U. after   10 cycles
 SCF Done:  E(RwB97XD) =  -805.022095319     A.U. after   10 cycles
 SCF Done:  E(RwB97XD) =  -805.022095338     A.U. after   10 cycles
 SCF Done:  E(RwB97XD) =  -805.022095363     A.U. after   10 cycles
 SCF Done:  E(RwB97XD) =  -805.022095376     A.U. after    8 cycles
 SCF Done:  E(RwB97XD) =  -805.022095381     A.U. after    8 cycles
 SCF Done:  E(RwB97XD) =  -805.022095383     A.U. after    8 cycles
 SCF Done:  E(RwB97XD) =  -805.022095385     A.U. after    9 cycles
 SCF Done:  E(RwB97XD) =  -805.022095385     A.U. after    9 cycles
 Optimization completed.
    -- Stationary point found.
 Normal termination of Gaussian 16 at Fri Jan 27 20:15:03 2023.

 ----------------------------------------------------------------------
 #N Geom=AllCheck Guess=TCheck SCRF=Check GenChk RwB97XD/Aug-CC-pVDZ Fr
 eq
 ----------------------------------------------------------------------

 Structure from the checkpoint file:  "/gscratch/scrubbed/gds001/Gau-13925.chk"
 ----
 blah
 ----
 Charge =  1 Multiplicity = 1

                         Standard orientation:
 ---------------------------------------------------------------------
 Center     Atomic      Atomic             Coordinates (Angstroms)
 Number     Number       Type             X           Y           Z
 ---------------------------------------------------------------------
      1          6           0        2.403274    1.905211   -0.912757
      2          6           0        2.427173    0.875098    0.244969
      3          7           0        3.841810    0.658502    0.503494
      4          6           0        4.462577    1.973595    0.366919
      5          6           0        3.805995    2.555890   -0.884732
      6          6           0        1.724470   -0.415256   -0.102948
      7          6           0        0.446494   -0.687698    0.355881
      8          7           0       -0.183612   -1.821940    0.006904
      9          6           0        0.378807   -2.743833   -0.785753
     10          6           0        1.659611   -2.540395   -1.272101
     11          6           0        2.331679   -1.371323   -0.927303
     12          6           0        4.118733    0.010833    1.772062
     13          1           0        1.924073    1.313562    1.133153
     14          1           0        2.216388    1.407117   -1.871589
     15          1           0        1.595939    2.630546   -0.761411
     16          1           0        4.374767    2.274793   -1.778036
     17          1           0        3.757180    3.649159   -0.849989
     18          1           0        4.244875    2.605566    1.252147
     19          1           0        5.551234    1.873208    0.284848
     20          1           0        3.345933   -1.182436   -1.278914
     21          1           0       -0.220253   -3.624690   -1.003524
     22          1           0       -1.159578   -1.999080    0.374941
     23          1           0       -0.105730   -0.016161    1.010422
     24          1           0        3.663977   -0.988345    1.799511
     25          1           0        3.734400    0.594067    2.632883
     26          1           0        5.201338   -0.110548    1.892716
     27          1           0        2.119217   -3.291281   -1.910529
     28          8           0       -2.631770   -2.301130    0.851821
     29          1           0       -2.917222   -2.718752    1.666373
     30          1           0       -3.428065   -1.880913    0.434936
     31          8           0       -4.656850   -1.137216   -0.341091
     32          1           0       -5.189439   -0.424052    0.075861
     33          1           0       -5.255980   -1.622126   -0.912157
     34          8           0       -6.079689    0.819780    0.838370
     35          1           0       -6.692256    0.650083    1.557059
     36          1           0       -6.437469    1.587485    0.356723
     37          8           0       -7.090576    3.007994   -0.527082
     38          1           0       -6.967507    3.921870   -0.258083
     39          1           0       -7.845009    3.006850   -1.121693
 ---------------------------------------------------------------------

 SCF Done:  E(RwB97XD) =  -805.022095385     A.U. after    1 cycles

 The electronic state is 1-A.
 Alpha  occ. eigenvalues --  -19.38908 -19.38444 -19.36721 -19.36574 -14.66553
 Alpha  occ. eigenvalues --  -14.54516 -10.50128 -10.49797 -10.46350 -10.45954
 Alpha  occ. eigenvalues --  -10.45844 -10.44438 -10.40813 -10.40789 -10.39863
 Alpha  occ. eigenvalues --  -10.38514  -1.24952  -1.23304  -1.22949  -1.21333
 Alpha  occ. eigenvalues --   -1.20074  -1.15019  -1.06914  -1.03649  -0.98374
 Alpha  occ. eigenvalues --   -0.94235  -0.89467  -0.87941  -0.86797  -0.81778
 Alpha  occ. eigenvalues --   -0.77743  -0.76495  -0.74316  -0.73923  -0.73686
 Alpha  occ. eigenvalues --   -0.72534  -0.72297  -0.72057  -0.69798  -0.67907
 Alpha  occ. eigenvalues --   -0.67708  -0.66819  -0.63757  -0.62773  -0.62457
 Alpha  occ. eigenvalues --   -0.61667  -0.61174  -0.59486  -0.59005  -0.57559
 Alpha  occ. eigenvalues --   -0.56356  -0.55487  -0.55224  -0.54459  -0.53603
 Alpha  occ. eigenvalues --   -0.52373  -0.51890  -0.51777  -0.51712  -0.50323
 Alpha  occ. eigenvalues --   -0.50088  -0.49938  -0.48078  -0.40579
 Alpha virt. eigenvalues --   -0.13070  -0.09599  -0.05958  -0.04814  -0.04137
 Alpha virt. eigenvalues --   -0.03996  -0.03262  -0.02732  -0.02324  -0.02187
 Alpha virt. eigenvalues --   -0.01934  -0.01211  -0.01010  -0.00765  -0.00299

 Mulliken charges:
               1
     1  C    0.938742
     2  C    0.815355
     3  N   -0.441802
     4  C    1.192584
     5  C    0.673768
     6  C    1.221531
     7  C    0.662152
     8  N   -0.085116
     9  C    0.764959
    10  C    0.158487
    11  C    1.163683
    12  C    0.840538
    13  H   -0.806475
    14  H   -0.440837
    15  H   -0.381241
    16  H   -0.329692
    17  H   -0.281525
    18  H   -0.379223
    19  H   -0.531002
    20  H   -0.965042
    21  H   -0.645918
    22  H    0.103476
    23  H   -0.845243
    24  H   -0.341329
    25  H   -0.165776
    26  H   -0.238724
    27  H   -0.583188
    28  O   -0.481775
    29  H    0.133596
    30  H    0.299692
    31  O   -0.403594
    32  H    0.273502
    33  H    0.126765
    34  O   -0.353605
    35  H    0.129750
    36  H    0.224473
    37  O   -0.314052
    38  H    0.143467
    39  H    0.148640
 Sum of Mulliken charges =   1.00000

 Dipole moment (field-independent basis, Debye):
    X=             -6.4227    Y=             -1.1986    Z=             -0.2837  Tot=              6.5398
 Quadrupole moment (field-independent basis, Debye-Ang):
   XX=             12.6315   YY=            -56.5246   ZZ=            -86.5232
   XY=            -18.6637   XZ=             -1.3746   YZ=              1.3495

  Exact polarizability: 180.000  18.485 174.991  -2.937   8.322 140.234
 Approx polarizability: 182.613   8.899 182.183 -10.634  14.170 159.431

                      1                      2                      3
                      A                      A                      A
 Frequencies --      2.4166                 5.3605                14.7119
 Red. masses --      3.9289                 5.1084                 4.0460
 Frc consts  --      0.0000                 0.0001                 0.0005
 IR Inten    --      0.1873                 0.2405                 0.1740

                      4                      5                      6
                      A                      A                      A
 Frequencies --     16.4092                30.1627                34.9258
 Red. masses --      4.2748                 3.9991                 4.6715
 Frc consts  --      0.0007                 0.0021                 0.0034
 IR Inten    --      0.4946                 1.9055                 1.8106

                      7                      8                      9
                      A                      A                      A
 Frequencies --     37.7119                41.9681                52.6638
 Red. masses --      2.8625                 5.4394                 6.5418
 Frc consts  --      0.0024                 0.0056                 0.0107
 IR Inten    --      1.1999                 2.3384                 2.7474

                     10                     11                     12
                      A                      A                      A
 Frequencies --     88.2076                96.3657               111.7638
 Red. masses --      1.0564                 3.3724                 4.1577
 Frc consts  --      0.0048                 0.0185                 0.0306
 IR Inten    --     20.4868                 3.0570                 3.2043

                     13                     14                     15
                      A                      A                      A
 Frequencies --    146.2083               157.6329               176.2074
 Red. masses --      1.1386                 1.9753                 1.3916
 Frc consts  --      0.0143                 0.0289                 0.0255
 IR Inten    --    208.7440                 4.7177                58.2628

                     16                     17                     18
                      A                      A                      A
 Frequencies --    187.9319               188.9001               204.6545
 Red. masses --      3.8924                 2.2177                 1.1862
 Frc consts  --      0.0810                 0.0466                 0.0293
 IR Inten    --     41.4758                37.8308                66.9375

                     19                     20                     21
                      A                      A                      A
 Frequencies --    217.7391               239.5343               245.4229
 Red. masses --      5.3538                 1.0865                 1.1265
 Frc consts  --      0.1495                 0.0367                 0.0400
 IR Inten    --     30.4524                49.2106                 1.1934

                     22                     23                     24
                      A                      A                      A
 Frequencies --    259.7682               265.4675               285.4361
 Red. masses --      1.0921                 2.6436                 5.0791
 Frc consts  --      0.0434                 0.1098                 0.2438
 IR Inten    --    100.8152                11.6851                 6.1904

                     25                     26                     27
                      A                      A                      A
 Frequencies --    310.5850               358.4204               371.4929
 Red. masses --      4.3366                 2.7943                 4.7353
 Frc consts  --      0.2465                 0.2115                 0.3850
 IR Inten    --      9.6204                 4.9053                27.6656

                     28                     29                     30
                      A                      A                      A
 Frequencies --    413.3401               414.8451               417.2285
 Red. masses --      1.0933                 2.7606                 3.0750
 Frc consts  --      0.1101                 0.2799                 0.3154
 IR Inten    --     15.5062                 1.6464                 1.6206

                     31                     32                     33
                      A                      A                      A
 Frequencies --    476.4999               542.4430               577.0841
 Red. masses --      1.0510                 2.6071                 1.5170
 Frc consts  --      0.1406                 0.4520                 0.2977
 IR Inten    --     29.8373                 2.0479                14.7124

                     34                     35                     36
                      A                      A                      A
 Frequencies --    598.1754               635.8449               646.4025
 Red. masses --      2.3768                 5.2252                 3.1667
 Frc consts  --      0.5011                 1.2447                 0.7796
 IR Inten    --      9.9693                35.8715                 2.4509

                     37                     38                     39
                      A                      A                      A
 Frequencies --    667.6828               711.4543               724.7257
 Red. masses --      4.3829                 1.9855                 1.0515
 Frc consts  --      1.1512                 0.5921                 0.3254
 IR Inten    --      1.7407                36.6117               138.7662

                     40                     41                     42
                      A                      A                      A
 Frequencies --    774.8229               838.9933               844.6548
 Red. masses --      1.7600                 1.6416                 1.0516
 Frc consts  --      0.6225                 0.6808                 0.4421
 IR Inten    --      3.3926                21.7485                94.9842

                     43                     44                     45
                      A                      A                      A
 Frequencies --    853.5899               923.4891               935.5996
 Red. masses --      1.9504                 1.6984                 3.3872
 Frc consts  --      0.8373                 0.8534                 1.7469
 IR Inten    --     12.4605                11.0656                 4.2607

                     46                     47                     48
                      A                      A                      A
 Frequencies --    947.1672               953.5424               968.8402
 Red. masses --      1.4250                 1.1291                 2.1103
 Frc consts  --      0.7532                 0.6049                 1.1671
 IR Inten    --     26.3597                58.6024                 1.3822

                     49                     50                     51
                      A                      A                      A
 Frequencies --    985.1129              1001.7285              1043.6164
 Red. masses --      1.4539                 1.8641                 2.2356
 Frc consts  --      0.8313                 1.1021                 1.4346
 IR Inten    --      2.1876                 0.9548                 1.9085

                     52                     53                     54
                      A                      A                      A
 Frequencies --   1043.9459              1061.2107              1080.6056
 Red. masses --      1.9187                 2.3347                 1.6892
 Frc consts  --      1.2320                 1.5491                 1.1622
 IR Inten    --      2.2080                 1.9618                16.2654

                     55                     56                     57
                      A                      A                      A
 Frequencies --   1084.6291              1112.3682              1135.1873
 Red. masses --      2.0984                 2.1806                 1.4591
 Frc consts  --      1.4545                 1.5897                 1.1078
 IR Inten    --      3.0210                11.0062                 8.5849

                     58                     59                     60
                      A                      A                      A
 Frequencies --   1138.2095              1198.7321              1205.8294
 Red. masses --      1.2860                 1.4920                 1.2746
 Frc consts  --      0.9816                 1.2632                 1.0919
 IR Inten    --      2.9979                10.4374                 6.2393

                     61                     62                     63
                      A                      A                      A
 Frequencies --   1220.2970              1243.8355              1251.5795
 Red. masses --      1.5931                 1.6223                 1.0925
 Frc consts  --      1.3978                 1.4788                 1.0083
 IR Inten    --      8.3782                 6.7126                33.9831

                     64                     65                     66
                      A                      A                      A
 Frequencies --   1257.6577              1271.5221              1292.0142
 Red. masses --      1.6375                 1.8719                 1.7721
 Frc consts  --      1.5260                 1.7831                 1.7429
 IR Inten    --      9.0994                20.6029                 7.6977

                     67                     68                     69
                      A                      A                      A
 Frequencies --   1305.3636              1321.9364              1329.1197
 Red. masses --      1.4769                 1.5580                 1.3669
 Frc consts  --      1.4828                 1.6042                 1.4227
 IR Inten    --     11.7077                15.3153                 4.9941

                     70                     71                     72
                      A                      A                      A
 Frequencies --   1348.1771              1354.5461              1379.3355
 Red. masses --      1.4864                 2.0156                 1.8643
 Frc consts  --      1.5918                 2.1789                 2.0898
 IR Inten    --      5.1264                 2.8891                25.1028

                     73                     74                     75
                      A                      A                      A
 Frequencies --   1390.5050              1440.6597              1453.3741
 Red. masses --      1.6394                 1.6190                 1.3723
 Frc consts  --      1.8676                 1.9798                 1.7078
 IR Inten    --     12.2846                12.1287                 3.9466

                     76                     77                     78
                      A                      A                      A
 Frequencies --   1478.4619              1483.9000              1488.9870
 Red. masses --      1.0454                 1.0708                 1.0814
 Frc consts  --      1.3464                 1.3892                 1.4125
 IR Inten    --     12.2656                 6.8758                 2.9651

                     79                     80                     81
                      A                      A                      A
 Frequencies --   1503.6951              1515.5142              1521.9530
 Red. masses --      1.0884                 1.9483                 1.2049
 Frc consts  --      1.4500                 2.6365                 1.6444
 IR Inten    --     10.7435                32.1692                 7.1092

                     82                     83                     84
                      A                      A                      A
 Frequencies --   1617.8752              1627.2767              1635.6144
 Red. masses --      1.9543                 1.1190                 1.1225
 Frc consts  --      3.0139                 1.7458                 1.7694
 IR Inten    --     47.2313               140.9410                31.6538

                     85                     86                     87
                      A                      A                      A
 Frequencies --   1657.8243              1684.4872              1701.2921
 Red. masses --      1.0999                 1.1340                 4.0107
 Frc consts  --      1.7811                 1.8958                 6.8395
 IR Inten    --      5.2966                 6.2465                 4.2482

                     88                     89                     90
                      A                      A                      A
 Frequencies --   1715.3921              2852.6382              2927.8962
 Red. masses --      2.7109                 1.1057                 1.0821
 Frc consts  --      4.6998                 5.3014                 5.4653
 IR Inten    --      8.3201              3227.2682                53.7431

                     91                     92                     93
                      A                      A                      A
 Frequencies --   2955.7094              2962.5972              3088.2847
 Red. masses --      1.0715                 1.0569                 1.0619
 Frc consts  --      5.5152                 5.4654                 5.9673
 IR Inten    --     45.7392                94.4044                18.1428

                     94                     95                     96
                      A                      A                      A
 Frequencies --   3090.4588              3102.2923              3123.4938
 Red. masses --      1.0804                 1.0645                 1.0900
 Frc consts  --      6.0797                 6.0359                 6.2654
 IR Inten    --     28.8077                21.6125                23.0703

                     97                     98                     99
                      A                      A                      A
 Frequencies --   3137.8661              3144.7809              3160.5161
 Red. masses --      1.1057                 1.1018                 1.1063
 Frc consts  --      6.4142                 6.4197                 6.5110
 IR Inten    --      2.7237                17.2652                24.1595

                    100                    101                    102
                      A                      A                      A
 Frequencies --   3221.3123              3239.3521              3243.9546
 Red. masses --      1.0920                 1.0953                 1.0930
 Frc consts  --      6.6763                 6.7717                 6.7767
 IR Inten    --      0.9822                 1.0433                 2.5725

                    103                    104                    105
                      A                      A                      A
 Frequencies --   3258.6178              3300.2419              3491.3555
 Red. masses --      1.1003                 1.0655                 1.0625
 Frc consts  --      6.8837                 6.8375                 7.6310
 IR Inten    --      1.6924              1651.7509               852.4989

                    106                    107                    108
                      A                      A                      A
 Frequencies --   3652.5742              3881.4659              3951.6734
 Red. masses --      1.0593                 1.0451                 1.0677
 Frc consts  --      8.3267                 9.2769                 9.8230
 IR Inten    --    531.4122                23.7935                99.3136

                    109                    110                    111
                      A                      A                      A
 Frequencies --   3953.6549              3955.1328              3989.1612
 Red. masses --      1.0693                 1.0672                 1.0831
 Frc consts  --      9.8484                 9.8356                10.1546
 IR Inten    --     55.1630               125.5554               110.7134

 - Thermochemistry -
 -------------------
 Temperature   298.150 Kelvin.  Pressure   1.00000 Atm.
 Atom     1 has atomic number  6 and mass  12.00000

 Molecular mass:   235.16578 amu.
 Principal axes and moments of inertia in atomic units:
                           1         2         3
     Eigenvalues --  3471.75629********************
           X            1.00000   0.00176   0.00191
           Y           -0.00175   0.99999  -0.00452
           Z           -0.00192   0.00452   0.99999
 This molecule is an asymmetric top.
 Rotational symmetry number  1.
 Warning -- assumption of classical behavior for rotation
           may cause significant error
 Rotational temperatures (Kelvin)      0.02495     0.00680     0.00578
 Rotational constants (GHZ):           0.51984     0.14177     0.12047
 Zero-point vibrational energy     892910.0 (Joules/Mol)
                                  213.41062 (Kcal/Mol)
 Warning -- explicit consideration of  34 degrees of freedom as
           vibrations may cause significant error
 Vibrational temperatures:      3.48     7.71    21.17    23.61    43.40
          (Kelvin)             50.25    54.26    60.38    75.77   126.91
                              138.65   160.80   210.36   226.80   253.52
                              270.39   271.79   294.45   313.28   344.64
                              353.11   373.75   381.95   410.68   446.86
                              515.69   534.50   594.70   596.87   600.30
                              685.58   780.45   830.30   860.64   914.84
                              930.03   960.65  1023.62  1042.72  1114.80
                             1207.12  1215.27  1228.13  1328.69  1346.12
                             1362.76  1371.93  1393.94  1417.36  1441.26
                             1501.53  1502.01  1526.85  1554.75  1560.54
                             1600.45  1633.28  1637.63  1724.71  1734.92
                             1755.74  1789.60  1800.74  1809.49  1829.44
                             1858.92  1878.13  1901.97  1912.31  1939.73
                             1948.89  1984.56  2000.63  2072.79  2091.08
                             2127.18  2135.00  2142.32  2163.48  2180.49
                             2189.75  2327.76  2341.29  2353.28  2385.24
                             2423.60  2447.78  2468.07  4104.31  4212.59
                             4252.61  4262.52  4443.35  4446.48  4463.51
                             4494.01  4514.69  4524.64  4547.28  4634.75
                             4660.71  4667.33  4688.42  4748.31  5023.28
                             5255.24  5584.56  5685.58  5688.43  5690.55
                             5739.51

 Zero-point correction=                           0.340091 (Hartree/Particle)
 Thermal correction to Energy=                    0.364011
 Thermal correction to Enthalpy=                  0.364955
 Thermal correction to Gibbs Free Energy=         0.276606
 Sum of electronic and zero-point Energies=           -804.682004
 Sum of electronic and thermal Energies=              -804.658085
 Sum of electronic and thermal Enthalpies=            -804.657140
 Sum of electronic and thermal Free Energies=         -804.745489

                     E (Thermal)             CV                S
                      KCal/Mol        Cal/Mol-Kelvin    Cal/Mol-Kelvin
 Total                  228.420             80.426            185.946
 Electronic               0.000              0.000              0.000
 Translational            0.889              2.981             42.267
 Rotational               0.889              2.981             34.847
 Vibrational            226.643             74.464            108.832
 Vibration     1          0.592              1.987             10.833
 Vibration     2          0.593              1.987              9.250
 Vibration     3          0.593              1.986              7.244
 Vibration     4          0.593              1.986              7.027
 Vibration     5          0.594              1.984              5.819
 Vibration     6          0.594              1.983              5.528
 Vibration     7          0.594              1.982              5.376
 Vibration     8          0.595              1.980              5.164
 Vibration     9          0.596              1.977              4.715
 Vibration    10          0.601              1.957              3.699
 Vibration    11          0.603              1.952              3.527
 Vibration    12          0.607              1.940              3.238
 Vibration    13          0.617              1.907              2.721
 Vibration    14          0.621              1.894              2.578
 Vibration    15          0.628              1.872              2.368
 Vibration    16          0.633              1.856              2.248
 Vibration    17          0.633              1.855              2.239
 Vibration    18          0.640              1.833              2.091
 Vibration    19          0.646              1.814              1.978
 Vibration    20          0.657              1.780              1.806
 Vibration    21          0.660              1.770              1.763
 Vibration    22          0.668              1.746              1.663
 Vibration    23          0.671              1.736              1.626
 Vibration    24          0.683              1.701              1.501
 Vibration    25          0.699              1.654              1.359
 Vibration    26          0.733              1.558              1.129
 Vibration    27          0.743              1.531              1.074
 Vibration    28          0.777              1.441              0.915
 Vibration    29          0.778              1.438              0.910
 Vibration    30          0.780              1.433              0.901
 Vibration    31          0.833              1.302              0.720
 Vibration    32          0.898              1.156              0.560
 Vibration    33          0.934              1.081              0.491
 Vibration    34          0.956              1.036              0.453

 Optimization completed on the basis of negligible forces.
    -- Stationary point found.
 Normal termination of Gaussian 16 at Fri Jan 27 21:02:36 2023.
