 Gaussian 16, Revision A.03,
 Gaussian 16:  ES64L-G16RevA.03 25-Dec-2016

 -----------------------------
 # wB97XD/aug-cc-pVDZ opt freq
 -----------------------------

 ----
 blah
 ----
 Symbolic Z-matrix:
 Charge =  1 Multiplicity = 1

 SCF Done:  E(RwB97XD) =  -805.032084247     A.U. after   15 cycles
 SCF Done:  E(RwB97XD) =  -805.032878238     A.U. after   13 cycles
 SCF Done:  E(RwB97XD) =  -805.033053047     A.U. after   13 cycles
 SCF Done:  E(RwB97XD) =  -805.033002554     A.U. after   12 cycles
 SCF Done:  E(RwB97XD) =  -805.032988849     A.U. after   13 cycles
 SCF Done:  E(RwB97XD) =  -805.032793677     A.U. after   12 cycles
 SCF Done:  E(RwB97XD) =  -805.033195199     A.U. after    8 cycles
 SCF Done:  E(RwB97XD) =  -805.033406452     A.U. after   12 cycles
 SCF Done:  E(RwB97XD) =  -805.033410276     A.U. after   12 cycles
 SCF Done:  E(RwB97XD) =  -805.033452454     A.U. after   12 cycles
 SCF Done:  E(RwB97XD) =  -805.033591475     A.U. after    9 cycles
 SCF Done:  E(RwB97XD) =  -805.033591683     A.U. after    9 cycles
 SCF Done:  E(RwB97XD) =  -805.033591806     A.U. after    9 cycles
 SCF Done:  E(RwB97XD) =  -805.033591940     A.U. after    8 cycles
 SCF Done:  E(RwB97XD) =  -805.033592067     A.U. after    9 cycles
 SCF Done:  E(RwB97XD) =  -805.033592156     A.U. after    8 cycles
 SCF Done:  E(RwB97XD) =  -805.033592251     A.U. after    8 cycles
 SCF Done:  E(RwB97XD) =  -805.033592307     A.U. after    8 cycles
 SCF Done:  E(RwB97XD) =  -805.033592347     A.U. after    8 cycles
 Optimization completed.
    -- Stationary point found.
 Normal termination of Gaussian 16 at Wed Feb  1 15:17:00 2023.

 ----------------------------------------------------------------------
 #N Geom=AllCheck Guess=TCheck SCRF=Check GenChk RwB97XD/Aug-CC-pVDZ Fr
 eq
 ----------------------------------------------------------------------

 Structure from the checkpoint file:  "/gscratch/scrubbed/gds001/Gau-22576.chk"
 ----
 blah
 ----
 Charge =  1 Multiplicity = 1

                         Standard orientation:
 ---------------------------------------------------------------------
 Center     Atomic      Atomic             Coordinates (Angstroms)
 Number     Number       Type             X           Y           Z
 ---------------------------------------------------------------------
      1          6           0        0.453679    0.792908    0.318267
      2          6           0       -0.809376    1.366458    0.151197
      3          6           0       -0.866751    2.707868   -0.230376
      4          6           0        0.315938    3.414148   -0.416795
      5          6           0        1.522771    2.744833   -0.230605
      6          7           0        1.592626    1.459218    0.125266
      7          6           0       -2.074918    0.585655    0.384656
      8          6           0       -2.300426    0.010866    1.785055
      9          6           0       -3.338621   -1.117728    1.583696
     10          6           0       -3.394221   -1.353682    0.063299
     11          7           0       -2.189509   -0.648799   -0.472383
     12          8           0       -0.305596   -2.511642   -0.048080
     13          1           0       -4.275462   -0.892872   -0.397894
     14          1           0       -4.326946   -0.831039    1.955903
     15          1           0       -3.039284   -2.027032    2.113598
     16          1           0       -1.355135   -0.385785    2.174173
     17          1           0       -2.639973    0.790781    2.472656
     18          1           0       -3.343692   -2.404265   -0.237348
     19          1           0       -2.933835    1.209718    0.098357
     20          1           0        0.562236   -0.254684    0.607456
     21          1           0        2.473619    3.258154   -0.376418
     22          1           0        0.307372    4.462672   -0.707807
     23          1           0       -1.829074    3.200813   -0.376387
     24          6           0       -2.208541   -0.408004   -1.929706
     25          1           0       -1.385152   -1.291794   -0.264052
     26          1           0        0.494643   -2.457050   -0.638283
     27          1           0       -0.228122   -3.304314    0.485028
     28          1           0        3.051291    0.248505   -0.081981
     29          8           0        3.495677   -0.559927   -0.395540
     30          1           0        4.217260   -0.766181    0.220200
     31          8           0        1.689203   -2.015200   -1.618441
     32          1           0        2.438734   -1.533331   -1.181242
     33          1           0        2.068698   -2.544624   -2.322103
     34          1           0       -2.325700   -1.367845   -2.441075
     35          1           0       -1.260952    0.051818   -2.224970
     36          1           0       -3.045958    0.254417   -2.174539
     37          8           0        5.669679   -1.037375    1.309342
     38          1           0        6.533662   -0.775049    0.980387
     39          1           0        5.831049   -1.780732    1.895781
 ---------------------------------------------------------------------

 SCF Done:  E(RwB97XD) =  -805.033592347     A.U. after    1 cycles

 The electronic state is 1-A.
 Alpha  occ. eigenvalues --  -19.39022 -19.38135 -19.36580 -19.34186 -14.68347
 Alpha  occ. eigenvalues --  -14.57547 -10.49374 -10.48135 -10.47526 -10.45913
 Alpha  occ. eigenvalues --  -10.45446 -10.44652 -10.44445 -10.43711 -10.43638
 Alpha  occ. eigenvalues --  -10.42799  -1.25336  -1.23334  -1.22444  -1.20790
 Alpha  occ. eigenvalues --   -1.18317  -1.17292  -1.06044  -1.04001  -1.00701
 Alpha  occ. eigenvalues --   -0.96357  -0.93985  -0.88739  -0.85163  -0.84439
 Alpha  occ. eigenvalues --   -0.83047  -0.77407  -0.75154  -0.74649  -0.72964
 Alpha  occ. eigenvalues --   -0.72802  -0.72298  -0.71733  -0.70096  -0.69318
 Alpha  occ. eigenvalues --   -0.68619  -0.65957  -0.65143  -0.64743  -0.62653
 Alpha  occ. eigenvalues --   -0.62346  -0.61813  -0.61512  -0.60679  -0.59968
 Alpha  occ. eigenvalues --   -0.58929  -0.58518  -0.57617  -0.56921  -0.56245
 Alpha  occ. eigenvalues --   -0.55036  -0.53787  -0.52868  -0.51059  -0.50445
 Alpha  occ. eigenvalues --   -0.49120  -0.48132  -0.46776  -0.46082
 Alpha virt. eigenvalues --   -0.08863  -0.08038  -0.06522  -0.05630  -0.04691
 Alpha virt. eigenvalues --   -0.04525  -0.03740  -0.02999  -0.02817  -0.02605
 Alpha virt. eigenvalues --   -0.02204  -0.01818  -0.01328  -0.00593  -0.00548

 Mulliken charges:
               1
     1  C    0.534520
     2  C    1.134409
     3  C    1.208934
     4  C    0.510056
     5  C    0.251258
     6  N   -0.404866
     7  C    1.252890
     8  C    0.925863
     9  C    0.757151
    10  C    1.236256
    11  N   -0.953133
    12  O   -0.483430
    13  H   -0.505898
    14  H   -0.231057
    15  H   -0.235523
    16  H   -0.278781
    17  H   -0.503368
    18  H   -0.481658
    19  H   -0.955023
    20  H   -1.102097
    21  H   -0.589946
    22  H   -0.593079
    23  H   -0.920727
    24  C    0.962868
    25  H    0.247181
    26  H    0.309246
    27  H    0.179969
    28  H    0.187729
    29  O   -0.393877
    30  H    0.237793
    31  O   -0.461493
    32  H    0.315323
    33  H    0.142906
    34  H   -0.122090
    35  H   -0.019441
    36  H   -0.142369
    37  O   -0.311300
    38  H    0.147352
    39  H    0.147449
 Sum of Mulliken charges =   1.00000

 Dipole moment (field-independent basis, Debye):
    X=             -3.2960    Y=             -1.9150    Z=              0.3320  Tot=              3.8264
 Quadrupole moment (field-independent basis, Debye-Ang):
   XX=            -28.4584   YY=            -64.7026   ZZ=            -85.7370
   XY=             -5.7092   XZ=              7.3279   YZ=             -4.6245

  Exact polarizability: 181.154  12.204 170.388  -3.966  -7.796 131.527
 Approx polarizability: 187.906   3.821 184.309  -1.266 -11.054 147.649

                      1                      2                      3
                      A                      A                      A
 Frequencies --     10.4607                21.8452                29.0691
 Red. masses --      4.5795                 4.9838                 4.1349
 Frc consts  --      0.0003                 0.0014                 0.0021
 IR Inten    --      3.1235                 3.7635                13.2803

                      4                      5                      6
                      A                      A                      A
 Frequencies --     33.8966                43.9902                49.1243
 Red. masses --      5.5588                 4.1554                 5.4138
 Frc consts  --      0.0038                 0.0047                 0.0077
 IR Inten    --      7.0004                 0.5151                 3.5102

                      7                      8                      9
                      A                      A                      A
 Frequencies --     68.5649                70.2313                79.4765
 Red. masses --      4.9765                 2.7020                 2.5752
 Frc consts  --      0.0138                 0.0079                 0.0096
 IR Inten    --      0.4817                10.2584                 4.5380

                     10                     11                     12
                      A                      A                      A
 Frequencies --     81.6962                96.4873               132.4839
 Red. masses --      1.2235                 3.6020                 1.8037
 Frc consts  --      0.0048                 0.0198                 0.0187
 IR Inten    --     18.5551                 2.6920                25.5012

                     13                     14                     15
                      A                      A                      A
 Frequencies --    142.2919               146.5362               187.5781
 Red. masses --      3.9714                 1.2946                 1.2292
 Frc consts  --      0.0474                 0.0164                 0.0255
 IR Inten    --      1.5560                56.7832               200.4043

                     16                     17                     18
                      A                      A                      A
 Frequencies --    198.4278               206.9101               214.2583
 Red. masses --      4.4651                 2.8459                 1.2763
 Frc consts  --      0.1036                 0.0718                 0.0345
 IR Inten    --     31.6771                14.5489                13.2839

                     19                     20                     21
                      A                      A                      A
 Frequencies --    219.1077               229.9236               256.5242
 Red. masses --      2.5249                 1.1987                 3.0092
 Frc consts  --      0.0714                 0.0373                 0.1167
 IR Inten    --     16.8238                 5.1516                 0.9611

                     22                     23                     24
                      A                      A                      A
 Frequencies --    265.5986               306.4037               316.4881
 Red. masses --      1.2013                 4.3316                 4.0742
 Frc consts  --      0.0499                 0.2396                 0.2404
 IR Inten    --    104.6568                13.7654                 1.1215

                     25                     26                     27
                      A                      A                      A
 Frequencies --    374.9766               392.6283               416.0416
 Red. masses --      5.5727                 3.0007                 3.1437
 Frc consts  --      0.4617                 0.2725                 0.3206
 IR Inten    --     16.0245                 0.0111                 4.5525

                     28                     29                     30
                      A                      A                      A
 Frequencies --    436.9487               510.8580               528.2857
 Red. masses --      2.9462                 1.0541                 3.2748
 Frc consts  --      0.3314                 0.1621                 0.5385
 IR Inten    --     13.1278                43.4285                 3.1230

                     31                     32                     33
                      A                      A                      A
 Frequencies --    559.6951               584.2824               589.4701
 Red. masses --      2.4893                 1.1888                 1.1282
 Frc consts  --      0.4594                 0.2391                 0.2310
 IR Inten    --      1.5220                80.8305                33.5862

                     34                     35                     36
                      A                      A                      A
 Frequencies --    636.2097               647.9061               679.4297
 Red. masses --      3.5912                 5.2129                 4.7023
 Frc consts  --      0.8564                 1.2893                 1.2790
 IR Inten    --      7.1714                 8.8414                14.8571

                     37                     38                     39
                      A                      A                      A
 Frequencies --    701.8914               734.5256               739.3849
 Red. masses --      1.0999                 1.3461                 1.3685
 Frc consts  --      0.3193                 0.4279                 0.4408
 IR Inten    --    143.6065                19.9841                43.9245

                     40                     41                     42
                      A                      A                      A
 Frequencies --    793.1967               815.9305               836.8648
 Red. masses --      1.2131                 2.3177                 1.7831
 Frc consts  --      0.4497                 0.9091                 0.7358
 IR Inten    --      3.4091                 9.0856                12.8993

                     43                     44                     45
                      A                      A                      A
 Frequencies --    899.4622               918.9480               930.5943
 Red. masses --      1.0736                 2.7701                 2.5623
 Frc consts  --      0.5117                 1.3783                 1.3074
 IR Inten    --    138.6426                 9.2536                 8.3609

                     46                     47                     48
                      A                      A                      A
 Frequencies --    949.2574               969.5583               986.3472
 Red. masses --      1.8953                 1.3150                 1.6021
 Frc consts  --      1.0062                 0.7283                 0.9183
 IR Inten    --      3.2785                16.2454                 2.0745

                     49                     50                     51
                      A                      A                      A
 Frequencies --    992.9738              1003.1535              1030.2372
 Red. masses --      1.2786                 1.4105                 1.4312
 Frc consts  --      0.7428                 0.8363                 0.8950
 IR Inten    --     52.8330                 5.8800                 0.4720

                     52                     53                     54
                      A                      A                      A
 Frequencies --   1036.8728              1051.0119              1059.0876
 Red. masses --      1.8304                 4.6796                 2.7161
 Frc consts  --      1.1594                 3.0456                 1.7950
 IR Inten    --     15.2918                13.5608                 6.9030

                     55                     56                     57
                      A                      A                      A
 Frequencies --   1088.8102              1108.0531              1131.4105
 Red. masses --      2.2652                 2.2818                 1.3609
 Frc consts  --      1.5822                 1.6506                 1.0264
 IR Inten    --      2.0135                 3.7331                 4.6860

                     58                     59                     60
                      A                      A                      A
 Frequencies --   1153.7769              1160.0533              1215.4519
 Red. masses --      1.6883                 2.0324                 1.7152
 Frc consts  --      1.3242                 1.6115                 1.4930
 IR Inten    --      7.2624                15.4828                 0.9613

                     61                     62                     63
                      A                      A                      A
 Frequencies --   1223.5921              1231.5036              1244.2761
 Red. masses --      1.4378                 1.6279                 1.3422
 Frc consts  --      1.2683                 1.4546                 1.2244
 IR Inten    --      9.5002                 4.7414                10.1915

                     64                     65                     66
                      A                      A                      A
 Frequencies --   1269.5140              1284.8763              1298.0775
 Red. masses --      1.4703                 1.3054                 1.5735
 Frc consts  --      1.3961                 1.2697                 1.5621
 IR Inten    --      0.9328                 4.5764                 0.8851

                     67                     68                     69
                      A                      A                      A
 Frequencies --   1315.5234              1334.1362              1368.6081
 Red. masses --      3.0873                 1.4170                 1.2844
 Frc consts  --      3.1479                 1.4860                 1.4174
 IR Inten    --      0.9018                 1.4068                 1.2796

                     70                     71                     72
                      A                      A                      A
 Frequencies --   1376.3640              1379.8785              1411.4918
 Red. masses --      1.4033                 1.3689                 1.6358
 Frc consts  --      1.5663                 1.5356                 1.9202
 IR Inten    --      3.4189                 1.0768                 1.6182

                     73                     74                     75
                      A                      A                      A
 Frequencies --   1453.7321              1479.7124              1481.9796
 Red. masses --      1.1845                 1.0501                 1.1171
 Frc consts  --      1.4749                 1.3547                 1.4455
 IR Inten    --      2.8585                 5.8643                13.2846

                     76                     77                     78
                      A                      A                      A
 Frequencies --   1482.5696              1488.6252              1498.3383
 Red. masses --      1.9965                 1.0749                 1.1188
 Frc consts  --      2.5856                 1.4034                 1.4799
 IR Inten    --     24.7367                 3.2154                32.5955

                     79                     80                     81
                      A                      A                      A
 Frequencies --   1510.2532              1520.5458              1536.6896
 Red. masses --      1.1726                 1.0991                 2.2470
 Frc consts  --      1.5757                 1.4972                 3.1263
 IR Inten    --     38.5348                 9.4623                 5.8973

                     82                     83                     84
                      A                      A                      A
 Frequencies --   1578.1575              1625.8007              1637.2422
 Red. masses --      1.1474                 1.0876                 1.0823
 Frc consts  --      1.6837                 1.6938                 1.7093
 IR Inten    --     28.2385                40.5015                35.7990

                     85                     86                     87
                      A                      A                      A
 Frequencies --   1649.8597              1662.9817              1684.6557
 Red. masses --      1.1245                 4.6004                 5.8839
 Frc consts  --      1.8034                 7.4958                 9.8387
 IR Inten    --    114.1364                 3.9358                15.3229

                     88                     89                     90
                      A                      A                      A
 Frequencies --   1695.6318              2992.8120              3076.8911
 Red. masses --      1.0732                 1.0880                 1.0724
 Frc consts  --      1.8180                 5.7418                 5.9819
 IR Inten    --     31.6108              1160.4969                 0.1287

                     91                     92                     93
                      A                      A                      A
 Frequencies --   3080.7726              3099.3290              3101.8881
 Red. masses --      1.0457                 1.0655                 1.0629
 Frc consts  --      5.8477                 6.0302                 6.0257
 IR Inten    --     14.4781                 9.3250                12.9719

                     94                     95                     96
                      A                      A                      A
 Frequencies --   3115.3341              3158.2769              3169.9372
 Red. masses --      1.0635                 1.1054                 1.1051
 Frc consts  --      6.0813                 6.4964                 6.5428
 IR Inten    --      8.4653                 1.7523                 7.4240

                     97                     98                     99
                      A                      A                      A
 Frequencies --   3179.3357              3181.0950              3183.0838
 Red. masses --      1.1050                 1.0939                 1.1065
 Frc consts  --      6.5811                 6.5219                 6.6056
 IR Inten    --     39.8088                39.6046                 4.1615

                    100                    101                    102
                      A                      A                      A
 Frequencies --   3192.5648              3196.6169              3198.7406
 Red. masses --      1.1066                 1.0694                 1.0915
 Frc consts  --      6.6455                 6.4386                 6.5803
 IR Inten    --     10.5906              1122.9416                 8.4509

                    103                    104                    105
                      A                      A                      A
 Frequencies --   3209.7859              3239.9091              3324.7341
 Red. masses --      1.0925                 1.0982                 1.0646
 Frc consts  --      6.6314                 6.7920                 6.9332
 IR Inten    --      2.7561                 1.6361               841.0141

                    106                    107                    108
                      A                      A                      A
 Frequencies --   3616.0524              3725.4169              3879.2622
 Red. masses --      1.0546                 1.0780                 1.0454
 Frc consts  --      8.1248                 8.8153                 9.2687
 IR Inten    --    506.1378              1122.0246                16.2445

                    109                    110                    111
                      A                      A                      A
 Frequencies --   3954.4038              3957.7072              3986.2108
 Red. masses --      1.0667                 1.0670                 1.0826
 Frc consts  --      9.8278                 9.8473                10.1357
 IR Inten    --     89.5046                99.0324                99.8659

 - Thermochemistry -
 -------------------
 Temperature   298.150 Kelvin.  Pressure   1.00000 Atm.
 Atom     1 has atomic number  6 and mass  12.00000

 Molecular mass:   235.16578 amu.
 Principal axes and moments of inertia in atomic units:
                           1         2         3
     Eigenvalues --  3382.637106484.478928127.99186
           X            0.99999  -0.00367   0.00244
           Y            0.00369   0.99997  -0.00669
           Z           -0.00242   0.00670   0.99997
 This molecule is an asymmetric top.
 Rotational symmetry number  1.
 Warning -- assumption of classical behavior for rotation
           may cause significant error
 Rotational temperatures (Kelvin)      0.02561     0.01336     0.01066
 Rotational constants (GHZ):           0.53353     0.27832     0.22204
 Zero-point vibrational energy     900882.2 (Joules/Mol)
                                  215.31601 (Kcal/Mol)
 Warning -- explicit consideration of  33 degrees of freedom as
           vibrations may cause significant error
 Vibrational temperatures:     15.05    31.43    41.82    48.77    63.29
          (Kelvin)             70.68    98.65   101.05   114.35   117.54
                              138.82   190.61   204.73   210.83   269.88
                              285.49   297.70   308.27   315.25   330.81
                              369.08   382.14   440.85   455.36   539.51
                              564.90   598.59   628.67   735.01   760.09
                              805.28   840.65   848.12   915.36   932.19
                              977.55  1009.87  1056.82  1063.81  1141.23
                             1173.94  1204.06  1294.13  1322.16  1338.92
                             1365.77  1394.98  1419.13  1428.67  1443.31
                             1482.28  1491.83  1512.17  1523.79  1566.56
                             1594.24  1627.85  1660.03  1669.06  1748.76
                             1760.48  1771.86  1790.24  1826.55  1848.65
                             1867.64  1892.74  1919.52  1969.12  1980.28
                             1985.34  2030.82  2091.60  2128.98  2132.24
                             2133.09  2141.80  2155.77  2172.92  2187.73
                             2210.95  2270.62  2339.16  2355.63  2373.78
                             2392.66  2423.84  2439.64  4305.99  4426.96
                             4432.54  4459.24  4462.93  4482.27  4544.06
                             4560.83  4574.36  4576.89  4579.75  4593.39
                             4599.22  4602.27  4618.17  4661.51  4783.55
                             5202.69  5360.04  5581.39  5689.51  5694.26
                             5735.27

 Zero-point correction=                           0.343128 (Hartree/Particle)
 Thermal correction to Energy=                    0.365988
 Thermal correction to Enthalpy=                  0.366932
 Thermal correction to Gibbs Free Energy=         0.286651
 Sum of electronic and zero-point Energies=           -804.690464
 Sum of electronic and thermal Energies=              -804.667605
 Sum of electronic and thermal Enthalpies=            -804.666661
 Sum of electronic and thermal Free Energies=         -804.746941

                     E (Thermal)             CV                S
                      KCal/Mol        Cal/Mol-Kelvin    Cal/Mol-Kelvin
 Total                  229.661             78.611            168.964
 Electronic               0.000              0.000              0.000
 Translational            0.889              2.981             42.267
 Rotational               0.889              2.981             33.544
 Vibrational            227.883             72.649             93.153
 Vibration     1          0.593              1.987              7.922
 Vibration     2          0.593              1.985              6.459
 Vibration     3          0.593              1.984              5.892
 Vibration     4          0.594              1.983              5.587
 Vibration     5          0.595              1.980              5.071
 Vibration     6          0.595              1.978              4.852
 Vibration     7          0.598              1.969              4.194
 Vibration     8          0.598              1.968              4.147
 Vibration     9          0.600              1.963              3.904
 Vibration    10          0.600              1.962              3.850
 Vibration    11          0.603              1.952              3.524
 Vibration    12          0.613              1.921              2.910
 Vibration    13          0.616              1.911              2.773
 Vibration    14          0.617              1.906              2.717
 Vibration    15          0.632              1.857              2.252
 Vibration    16          0.637              1.842              2.148
 Vibration    17          0.641              1.830              2.071
 Vibration    18          0.644              1.819              2.007
 Vibration    19          0.647              1.812              1.966
 Vibration    20          0.652              1.795              1.880
 Vibration    21          0.666              1.752              1.685
 Vibration    22          0.671              1.736              1.625
 Vibration    23          0.697              1.662              1.382
 Vibration    24          0.703              1.642              1.328
 Vibration    25          0.746              1.523              1.059
 Vibration    26          0.760              1.486              0.990
 Vibration    27          0.779              1.435              0.906
 Vibration    28          0.797              1.390              0.836
 Vibration    29          0.866              1.226              0.632
 Vibration    30          0.883              1.187              0.591
 Vibration    31          0.915              1.119              0.524
 Vibration    32          0.941              1.065              0.477
 Vibration    33          0.947              1.054              0.468

                           ! Non-Optimized Parameters !
 Normal termination of Gaussian 16 at Wed Feb  1 16:22:40 2023.
