 Gaussian 16, Revision A.03,
 Gaussian 16:  ES64L-G16RevA.03 25-Dec-2016

 -----------------------------------------
 # wB97XD/aug-cc-pVDZ Temperature=130 Freq
 -----------------------------------------

 ---------------------------
 p-Py Nicotine, W anti, 4H2O
 ---------------------------
 Symbolic Z-matrix:
 Charge =  1 Multiplicity = 1

                         Standard orientation:
 ---------------------------------------------------------------------
 Center     Atomic      Atomic             Coordinates (Angstroms)
 Number     Number       Type             X           Y           Z
 ---------------------------------------------------------------------
      1          6           0       -0.233508    2.768554    0.026057
      2          6           0        0.158680    1.454089   -0.232902
      3          6           0       -0.848374    0.523019   -0.443923
      4          7           0       -2.136765    0.874304   -0.387060
      5          6           0       -2.534712    2.130397   -0.139541
      6          6           0       -1.585678    3.115082    0.065799
      7          6           0        1.605510    1.027894   -0.281738
      8          7           0        1.915114   -0.026747    0.699508
      9          6           0        3.254539   -0.484589    0.296272
     10          6           0        3.162639   -0.594818   -1.229009
     11          6           0        2.060809    0.418844   -1.622196
     12          8           0       -3.404179   -1.412384   -0.489541
     13          8           0       -2.008851   -1.622605    1.881324
     14          8           0        0.439434   -2.361094    0.725832
     15          1           0        3.499192   -1.430273    0.795554
     16          1           0        4.123209   -0.372862   -1.703870
     17          1           0        2.873717   -1.608867   -1.526776
     18          1           0        2.419862    1.200173   -2.299821
     19          1           0        1.224191   -0.085799   -2.119918
     20          1           0        4.015264    0.259313    0.594430
     21          1           0        2.225772    1.916834   -0.057983
     22          1           0       -0.663536   -0.522699   -0.676130
     23          1           0       -3.606734    2.308514   -0.110308
     24          1           0       -1.900893    4.136613    0.264402
     25          1           0        0.523868    3.533227    0.201020
     26          6           0        1.854855    0.432147    2.084308
     27          1           0       -2.818244    0.057116   -0.496306
     28          1           0        0.979110   -1.520668    0.684431
     29          1           0        1.009093   -3.038865    1.098412
     30          1           0       -3.157873   -1.672549    0.418160
     31          1           0       -2.819249   -1.959864   -1.042089
     32          1           0       -2.239123   -2.005359    2.731227
     33          1           0       -1.143742   -1.995701    1.635450
     34          8           0       -1.079120   -2.543354   -1.609247
     35          1           0       -0.487468   -2.756814   -0.867394
     36          1           0       -0.960296   -3.231286   -2.268401
     37          1           0        2.151046   -0.384792    2.752671
     38          1           0        0.828774    0.724585    2.338810
     39          1           0        2.528798    1.288914    2.261576
 ---------------------------------------------------------------------

 SCF Done:  E(RwB97XD) =  -805.036145804     A.U. after   16 cycles

 The electronic state is 1-A.
 Alpha  occ. eigenvalues --  -19.40776 -19.39408 -19.38867 -19.37953 -14.67070
 Alpha  occ. eigenvalues --  -14.59201 -10.50939 -10.50433 -10.47909 -10.47333
 Alpha  occ. eigenvalues --  -10.47026 -10.46862 -10.44325 -10.44037 -10.42058
 Alpha  occ. eigenvalues --  -10.41288  -1.25741  -1.25137  -1.23571  -1.23204
 Alpha  occ. eigenvalues --   -1.21918  -1.18352  -1.08350  -1.04752  -1.01265
 Alpha  occ. eigenvalues --   -0.96444  -0.90493  -0.90318  -0.89182  -0.82591
 Alpha  occ. eigenvalues --   -0.80546  -0.80064  -0.75999  -0.75179  -0.74913
 Alpha  occ. eigenvalues --   -0.74120  -0.73406  -0.72599  -0.71527  -0.70278
 Alpha  occ. eigenvalues --   -0.68934  -0.67967  -0.66313  -0.65278  -0.64377
 Alpha  occ. eigenvalues --   -0.63653  -0.62211  -0.61835  -0.60348  -0.60008
 Alpha  occ. eigenvalues --   -0.59483  -0.58014  -0.57749  -0.57045  -0.56333
 Alpha  occ. eigenvalues --   -0.54709  -0.54335  -0.53415  -0.52745  -0.52520
 Alpha  occ. eigenvalues --   -0.52132  -0.51416  -0.49500  -0.45727
 Alpha virt. eigenvalues --   -0.13770  -0.11062  -0.06921  -0.05783  -0.04870
 Alpha virt. eigenvalues --   -0.04826  -0.03648  -0.03326  -0.02961  -0.02856
 Alpha virt. eigenvalues --   -0.02428  -0.01454  -0.01199  -0.00734  -0.00315

 Mulliken charges:
               1
     1  C    1.158765
     2  C    0.662140
     3  C    0.683315
     4  N    0.079903
     5  C    0.678698
     6  C    0.501862
     7  C    1.116934
     8  N   -1.127309
     9  C    1.343928
    10  C    0.858881
    11  C    1.160828
    12  O   -0.596360
    13  O   -0.333212
    14  O   -0.899609
    15  H   -0.588178
    16  H   -0.287445
    17  H   -0.321569
    18  H   -0.544918
    19  H   -0.296336
    20  H   -0.527099
    21  H   -0.835725
    22  H   -1.285916
    23  H   -0.666366
    24  H   -0.586561
    25  H   -0.901307
    26  C    1.099242
    27  H    0.127224
    28  H    0.562445
    29  H    0.302474
    30  H    0.273016
    31  H    0.215626
    32  H    0.173280
    33  H    0.267690
    34  O   -0.359366
    35  H    0.242278
    36  H    0.201868
    37  H   -0.215151
    38  H   -0.123693
    39  H   -0.214279
 Sum of Mulliken charges =   1.00000

 Dipole moment (field-independent basis, Debye):
    X=              1.2539    Y=              1.3010    Z=              1.2599  Tot=              2.2027
 Quadrupole moment (field-independent basis, Debye-Ang):
   XX=            -74.4291   YY=            -58.2095   ZZ=            -84.5429
   XY=             -9.9523   XZ=             -1.4728   YZ=             -1.5123

  Exact polarizability: 182.308  -9.159 168.632  -0.614   5.677 132.515
 Approx polarizability: 189.791  -3.898 187.106   0.378   7.644 148.244

                      1                      2                      3
                      A                      A                      A
 Frequencies --     18.4173                40.1210                55.7890
 Red. masses --      4.2657                 4.6393                 3.9804
 Frc consts  --      0.0009                 0.0044                 0.0073
 IR Inten    --      1.5649                 0.4723                 0.6009

                      4                      5                      6
                      A                      A                      A
 Frequencies --     56.7114                75.3487                80.2265
 Red. masses --      3.8454                 2.6211                 4.9793
 Frc consts  --      0.0073                 0.0088                 0.0189
 IR Inten    --      0.4861                 0.8794                 0.4802

                      7                      8                      9
                      A                      A                      A
 Frequencies --     86.4887               101.6942               125.0338
 Red. masses --      5.1938                 5.0920                 4.1155
 Frc consts  --      0.0229                 0.0310                 0.0379
 IR Inten    --      1.7798                 2.5802                 1.4785

                     10                     11                     12
                      A                      A                      A
 Frequencies --    166.9203               170.0028               174.6661
 Red. masses --      3.8920                 2.1273                 4.9900
 Frc consts  --      0.0639                 0.0362                 0.0897
 IR Inten    --     14.3741                 0.7800                 1.4487

                     13                     14                     15
                      A                      A                      A
 Frequencies --    203.7001               217.3776               227.9797
 Red. masses --      4.5942                 3.6194                 4.9450
 Frc consts  --      0.1123                 0.1008                 0.1514
 IR Inten    --      9.9548                 3.4830                11.1948

                     16                     17                     18
                      A                      A                      A
 Frequencies --    248.4754               254.1696               255.8938
 Red. masses --      2.1925                 1.4433                 1.4647
 Frc consts  --      0.0798                 0.0549                 0.0565
 IR Inten    --      7.3960                19.1488                49.9451

                     19                     20                     21
                      A                      A                      A
 Frequencies --    262.4269               269.5753               283.6798
 Red. masses --      2.2545                 2.8590                 1.4344
 Frc consts  --      0.0915                 0.1224                 0.0680
 IR Inten    --     35.2206                79.5756                22.2302

                     22                     23                     24
                      A                      A                      A
 Frequencies --    321.5384               324.9019               401.7103
 Red. masses --      4.1356                 1.0452                 2.7071
 Frc consts  --      0.2519                 0.0650                 0.2574
 IR Inten    --      0.4533                 1.9883                 0.3003

                     25                     26                     27
                      A                      A                      A
 Frequencies --    409.3175               417.9827               452.9341
 Red. masses --      2.6552                 3.0382                 1.1409
 Frc consts  --      0.2621                 0.3127                 0.1379
 IR Inten    --     24.8599                11.8659                69.5395

                     28                     29                     30
                      A                      A                      A
 Frequencies --    460.7355               545.1839               548.5908
 Red. masses --      1.1274                 1.1471                 2.7683
 Frc consts  --      0.1410                 0.2009                 0.4909
 IR Inten    --     59.5125               108.2947                 6.5992

                     31                     32                     33
                      A                      A                      A
 Frequencies --    581.4202               596.8441               621.7707
 Red. masses --      2.6907                 1.1752                 1.1101
 Frc consts  --      0.5359                 0.2466                 0.2529
 IR Inten    --      6.8160                 6.1512                32.6808

                     34                     35                     36
                      A                      A                      A
 Frequencies --    633.2916               650.3185               671.6667
 Red. masses --      4.3920                 2.6135                 4.8514
 Frc consts  --      1.0378                 0.6512                 1.2895
 IR Inten    --     17.0959                 9.7414                 6.3022

                     37                     38                     39
                      A                      A                      A
 Frequencies --    699.9516               713.9652               726.2064
 Red. masses --      1.2462                 1.4522                 1.2229
 Frc consts  --      0.3597                 0.4361                 0.3800
 IR Inten    --      9.8311                75.6713               153.6149

                     40                     41                     42
                      A                      A                      A
 Frequencies --    780.4510               794.6279               840.2313
 Red. masses --      1.4658                 1.1237                 1.5093
 Frc consts  --      0.5261                 0.4180                 0.6278
 IR Inten    --     46.7503               384.4274                34.4018

                     43                     44                     45
                      A                      A                      A
 Frequencies --    844.7394               930.9618               934.0598
 Red. masses --      2.2646                 1.8798                 2.6832
 Frc consts  --      0.9521                 0.9599                 1.3793
 IR Inten    --      2.9024                15.3943                 9.1311

                     46                     47                     48
                      A                      A                      A
 Frequencies --    953.5155               971.1247               978.2216
 Red. masses --      2.2823                 1.4593                 1.1293
 Frc consts  --      1.2226                 0.8108                 0.6367
 IR Inten    --     11.3472                 4.3766                33.8771

                     49                     50                     51
                      A                      A                      A
 Frequencies --    985.2336              1007.1039              1031.8283
 Red. masses --      1.4054                 1.9657                 1.4142
 Frc consts  --      0.8038                 1.1747                 0.8871
 IR Inten    --      1.0421                 5.9332                 0.1485

                     52                     53                     54
                      A                      A                      A
 Frequencies --   1042.3787              1058.3363              1073.5607
 Red. masses --      3.3844                 2.3694                 1.8377
 Frc consts  --      2.1666                 1.5636                 1.2479
 IR Inten    --      8.9056                 1.7511                16.3976

                     55                     56                     57
                      A                      A                      A
 Frequencies --   1089.7136              1116.3595              1144.7334
 Red. masses --      2.2780                 2.3119                 1.2810
 Frc consts  --      1.5938                 1.6976                 0.9890
 IR Inten    --      6.2886                 9.2436                 3.4604

                     58                     59                     60
                      A                      A                      A
 Frequencies --   1151.1279              1193.4655              1213.9905
 Red. masses --      1.5059                 1.9464                 1.3077
 Frc consts  --      1.1757                 1.6334                 1.1355
 IR Inten    --      9.9306                16.1880                 7.5043

                     61                     62                     63
                      A                      A                      A
 Frequencies --   1228.8406              1242.5963              1258.5007
 Red. masses --      1.4587                 1.7553                 1.7423
 Frc consts  --      1.2978                 1.5969                 1.6259
 IR Inten    --      7.2438                10.9903                 7.0752

                     64                     65                     66
                      A                      A                      A
 Frequencies --   1263.0746              1290.8032              1298.3268
 Red. masses --      1.6773                 1.5609                 1.1152
 Frc consts  --      1.5766                 1.5323                 1.1075
 IR Inten    --     13.4990                 3.9390                60.9373

                     67                     68                     69
                      A                      A                      A
 Frequencies --   1301.3017              1329.1996              1331.2839
 Red. masses --      1.3215                 1.7344                 1.4810
 Frc consts  --      1.3185                 1.8055                 1.5465
 IR Inten    --      4.4769                23.9773                 1.7019

                     70                     71                     72
                      A                      A                      A
 Frequencies --   1362.2923              1374.7055              1381.8221
 Red. masses --      1.3305                 1.9464                 1.5377
 Frc consts  --      1.4548                 2.1673                 1.7299
 IR Inten    --      2.8778                11.1547                 5.9806

                     73                     74                     75
                      A                      A                      A
 Frequencies --   1404.6175              1442.1618              1453.0602
 Red. masses --      1.8651                 1.5686                 1.2250
 Frc consts  --      2.1680                 1.9221                 1.5238
 IR Inten    --      1.6727                22.9777                 7.0020

                     76                     77                     78
                      A                      A                      A
 Frequencies --   1484.0704              1486.5777              1490.9395
 Red. masses --      1.0468                 1.0697                 1.0724
 Frc consts  --      1.3584                 1.3928                 1.4045
 IR Inten    --     14.1256                 8.8400                 6.1578

                     79                     80                     81
                      A                      A                      A
 Frequencies --   1507.0758              1516.7090              1526.2379
 Red. masses --      1.0982                 1.6943                 1.2762
 Frc consts  --      1.4697                 2.2964                 1.7515
 IR Inten    --     10.5557                48.5531                14.2766

                     82                     83                     84
                      A                      A                      A
 Frequencies --   1621.1560              1637.8997              1655.4478
 Red. masses --      2.1197                 1.0746                 1.0760
 Frc consts  --      3.2823                 1.6986                 1.7374
 IR Inten    --     83.7596                55.3027               122.6403

                     85                     86                     87
                      A                      A                      A
 Frequencies --   1693.1741              1701.8556              1712.6018
 Red. masses --      1.0775                 1.3188                 3.8915
 Frc consts  --      1.8201                 2.2504                 6.7247
 IR Inten    --      7.2048                51.7175                10.4942

                     88                     89                     90
                      A                      A                      A
 Frequencies --   1713.5783              2700.6135              2980.7199
 Red. masses --      2.2007                 1.1098                 1.0840
 Frc consts  --      3.8073                 4.7688                 5.6745
 IR Inten    --     60.0727              1822.0744                84.9016

                     91                     92                     93
                      A                      A                      A
 Frequencies --   3001.0115              3002.4391              3091.0462
 Red. masses --      1.0540                 1.0648                 1.0640
 Frc consts  --      5.5927                 5.6556                 5.9898
 IR Inten    --    170.0237                24.6872                14.9325

                     94                     95                     96
                      A                      A                      A
 Frequencies --   3102.0164              3110.2015              3111.7583
 Red. masses --      1.0674                 1.0883                 1.0794
 Frc consts  --      6.0513                 6.2029                 6.1583
 IR Inten    --     31.1760                38.2753               782.5094

                     97                     98                     99
                      A                      A                      A
 Frequencies --   3119.8900              3146.8382              3150.9558
 Red. masses --      1.0824                 1.1043                 1.1042
 Frc consts  --      6.2073                 6.4427                 6.4590
 IR Inten    --    523.6145                 0.3443                13.9920

                    100                    101                    102
                      A                      A                      A
 Frequencies --   3164.8052              3213.5851              3246.7257
 Red. masses --      1.1052                 1.0926                 1.0929
 Frc consts  --      6.5218                 6.6482                 6.7878
 IR Inten    --     17.2888                 0.6439                 2.0890

                    103                    104                    105
                      A                      A                      A
 Frequencies --   3261.3113              3262.9290              3626.8128
 Red. masses --      1.0986                 1.0960                 1.0603
 Frc consts  --      6.8847                 6.8749                 8.2172
 IR Inten    --     15.1391                46.2655               211.1180

                    106                    107                    108
                      A                      A                      A
 Frequencies --   3657.0015              3688.0734              3719.9463
 Red. masses --      1.0527                 1.0598                 1.0727
 Frc consts  --      8.2947                 8.4930                 8.7455
 IR Inten    --    296.7535               317.3677               461.4000

                    109                    110                    111
                      A                      A                      A
 Frequencies --   3926.7131              3942.1756              3945.7237
 Red. masses --      1.0663                 1.0705                 1.0718
 Frc consts  --      9.6866                 9.8016                 9.8311
 IR Inten    --     83.9029               159.5583               106.9348

 - Thermochemistry -
 -------------------
 Temperature   130.000 Kelvin.  Pressure   1.00000 Atm.
 Atom     1 has atomic number  6 and mass  12.00000

 Molecular mass:   235.16578 amu.
 Principal axes and moments of inertia in atomic units:
                           1         2         3
     Eigenvalues --  3449.459384591.898796036.33291
           X            0.99995   0.00960  -0.00135
           Y           -0.00959   0.99993   0.00664
           Z            0.00141  -0.00662   0.99998
 This molecule is an asymmetric top.
 Rotational symmetry number  1.
 Warning -- assumption of classical behavior for rotation
           may cause significant error
 Rotational temperatures (Kelvin)      0.02511     0.01886     0.01435
 Rotational constants (GHZ):           0.52320     0.39303     0.29898
 Zero-point vibrational energy     904209.3 (Joules/Mol)
                                  216.11122 (Kcal/Mol)
 Warning -- explicit consideration of  20 degrees of freedom as
           vibrations may cause significant error
 Vibrational temperatures:     26.50    57.73    80.27    81.60   108.41
          (Kelvin)            115.43   124.44   146.32   179.90   240.16
                              244.60   251.31   293.08   312.76   328.01
                              357.50   365.69   368.17   377.57   387.86
                              408.15   462.62   467.46   577.97   588.92
                              601.38   651.67   662.90   784.40   789.30
                              836.53   858.73   894.59   911.17   935.66
                              966.38  1007.07  1027.24  1044.85  1122.89
                             1143.29  1208.91  1215.39  1339.45  1343.90
                             1371.90  1397.23  1407.44  1417.53  1449.00
                             1484.57  1499.75  1522.71  1544.61  1567.85
                             1606.19  1647.02  1656.22  1717.13  1746.66
                             1768.03  1787.82  1810.70  1817.28  1857.18
                             1868.00  1872.28  1912.42  1915.42  1960.03
                             1977.89  1988.13  2020.93  2074.95  2090.63
                             2135.25  2138.85  2145.13  2168.35  2182.21
                             2195.92  2332.48  2356.57  2381.82  2436.10
                             2448.59  2464.05  2465.46  3885.58  4288.59
                             4317.79  4319.84  4447.33  4463.11  4474.89
                             4477.13  4488.83  4527.60  4533.52  4553.45
                             4623.63  4671.31  4692.30  4694.63  5218.17
                             5261.61  5306.31  5352.17  5649.66  5671.91
                             5677.02

 Zero-point correction=                           0.344395 (Hartree/Particle)
 Thermal correction to Energy=                    0.349439
 Thermal correction to Enthalpy=                  0.349851
 Thermal correction to Gibbs Free Energy=         0.328638
 Sum of electronic and zero-point Energies=           -804.691751
 Sum of electronic and thermal Energies=              -804.686707
 Sum of electronic and thermal Enthalpies=            -804.686295
 Sum of electronic and thermal Free Energies=         -804.707508

                     E (Thermal)             CV                S
                      KCal/Mol        Cal/Mol-Kelvin    Cal/Mol-Kelvin
 Total                  219.276             41.932            102.396
 Electronic               0.000              0.000              0.000
 Translational            0.388              2.981             38.143
 Rotational               0.388              2.981             30.450
 Vibrational            218.501             35.970             33.803
 Vibration     1          0.259              1.980              5.151
 Vibration     2          0.263              1.955              3.617
 Vibration     3          0.266              1.925              2.977
 Vibration     4          0.267              1.923              2.945
 Vibration     5          0.273              1.876              2.405
 Vibration     6          0.275              1.862              2.287
 Vibration     7          0.278              1.842              2.148
 Vibration     8          0.285              1.790              1.854
 Vibration     9          0.298              1.698              1.493
 Vibration    10          0.328              1.507              1.028
 Vibration    11          0.330              1.492              1.001
 Vibration    12          0.334              1.469              0.960
 Vibration    13          0.359              1.323              0.745
 Vibration    14          0.372              1.253              0.662
 Vibration    15          0.383              1.199              0.603
 Vibration    16          0.404              1.096              0.504
 Vibration    17          0.410              1.068              0.480
 Vibration    18          0.412              1.060              0.473
 Vibration    19          0.419              1.028              0.446
 Vibration    20          0.426              0.993              0.419

 Normal termination of Gaussian 16 at Thu Aug 27 14:01:22 2020.
