 Gaussian 16, Revision A.03,
 Gaussian 16:  ES64L-G16RevA.03 25-Dec-2016

 -----------------------------
 # wB97XD/aug-cc-pVDZ opt freq
 -----------------------------

 ----
 blah
 ----
 Symbolic Z-matrix:
 Charge =  1 Multiplicity = 1

 SCF Done:  E(RwB97XD) =  -805.020647906     A.U. after   15 cycles
 SCF Done:  E(RwB97XD) =  -805.024919180     A.U. after   13 cycles
 SCF Done:  E(RwB97XD) =  -805.032550156     A.U. after   13 cycles
 SCF Done:  E(RwB97XD) =  -805.033660328     A.U. after   13 cycles
 SCF Done:  E(RwB97XD) =  -805.036871027     A.U. after   12 cycles
 SCF Done:  E(RwB97XD) =  -805.037075977     A.U. after   13 cycles
 SCF Done:  E(RwB97XD) =  -805.037968159     A.U. after   15 cycles
 SCF Done:  E(RwB97XD) =  -805.038100899     A.U. after   13 cycles
 SCF Done:  E(RwB97XD) =  -805.038754012     A.U. after   12 cycles
 SCF Done:  E(RwB97XD) =  -805.038916783     A.U. after   12 cycles
 SCF Done:  E(RwB97XD) =  -805.039224262     A.U. after   10 cycles
 SCF Done:  E(RwB97XD) =  -805.039225886     A.U. after    9 cycles
 SCF Done:  E(RwB97XD) =  -805.039227242     A.U. after   10 cycles
 SCF Done:  E(RwB97XD) =  -805.039227861     A.U. after    9 cycles
 SCF Done:  E(RwB97XD) =  -805.039228539     A.U. after    9 cycles
 SCF Done:  E(RwB97XD) =  -805.039229010     A.U. after    8 cycles
 SCF Done:  E(RwB97XD) =  -805.039229208     A.U. after    8 cycles
 SCF Done:  E(RwB97XD) =  -805.039229372     A.U. after    8 cycles
 SCF Done:  E(RwB97XD) =  -805.039229471     A.U. after    8 cycles
 Optimization completed.
    -- Stationary point found.
 Normal termination of Gaussian 16 at Wed Feb  1 15:20:12 2023.

 ----------------------------------------------------------------------
 #N Geom=AllCheck Guess=TCheck SCRF=Check GenChk RwB97XD/Aug-CC-pVDZ Fr
 eq
 ----------------------------------------------------------------------

 Structure from the checkpoint file:  "/gscratch/scrubbed/gds001/Gau-25805.chk"
 ----
 blah
 ----
 Charge =  1 Multiplicity = 1

                         Standard orientation:
 ---------------------------------------------------------------------
 Center     Atomic      Atomic             Coordinates (Angstroms)
 Number     Number       Type             X           Y           Z
 ---------------------------------------------------------------------
      1          6           0       -0.801769    0.565970   -0.825045
      2          6           0        0.205709    1.351077   -0.262886
      3          6           0       -0.172537    2.548114    0.344403
      4          6           0       -1.514604    2.910062    0.363474
      5          6           0       -2.439497    2.053344   -0.224763
      6          7           0       -2.091098    0.903396   -0.808972
      7          6           0        1.650434    0.927708   -0.296802
      8          6           0        2.223222    0.466548   -1.639752
      9          6           0        3.436761   -0.420883   -1.277677
     10          6           0        3.331834   -0.657498    0.237700
     11          7           0        1.938992   -0.253322    0.599578
     12          8           0        0.535314   -2.432683   -0.300597
     13          1           0        4.012126   -0.013108    0.806424
     14          1           0        4.386143    0.067664   -1.517239
     15          1           0        3.406971   -1.366303   -1.827901
     16          1           0        1.472436   -0.109608   -2.190867
     17          1           0        2.491916    1.330305   -2.254727
     18          1           0        3.487128   -1.694259    0.550864
     19          1           0        2.268431    1.741264    0.108720
     20          1           0       -0.568885   -0.387524   -1.301948
     21          1           0       -3.502298    2.296436   -0.230428
     22          1           0       -1.842392    3.839348    0.824931
     23          1           0        0.577092    3.198379    0.797570
     24          6           0        1.729702   -0.007828    2.044730
     25          1           0        1.320621   -1.044095    0.307918
     26          1           0       -0.396276   -2.612656   -0.037704
     27          1           0        0.901019   -3.268006   -0.598977
     28          1           0       -3.186314   -0.457368   -1.240058
     29          8           0       -3.586493   -1.358020   -1.250362
     30          1           0       -3.887905   -1.535765   -2.143492
     31          8           0       -2.043175   -2.658948    0.429564
     32          1           0       -2.669932   -2.290973   -0.245805
     33          1           0       -2.454079   -3.450199    0.786319
     34          1           0        2.056824   -0.894857    2.595536
     35          1           0        0.662254    0.155272    2.223003
     36          1           0        2.329179    0.858575    2.344930
     37          8           0       -1.390700   -0.520294    2.178325
     38          1           0       -2.080973   -0.302998    2.808305
     39          1           0       -1.733450   -1.270160    1.664641
 ---------------------------------------------------------------------

 SCF Done:  E(RwB97XD) =  -805.039229471     A.U. after    1 cycles

 The electronic state is 1-A.
 Alpha  occ. eigenvalues --  -19.40280 -19.39474 -19.37214 -19.36562 -14.68324
 Alpha  occ. eigenvalues --  -14.58033 -10.49322 -10.48134 -10.46316 -10.46197
 Alpha  occ. eigenvalues --  -10.45781 -10.44655 -10.44541 -10.43671 -10.43630
 Alpha  occ. eigenvalues --  -10.42961  -1.25454  -1.24491  -1.23469  -1.21273
 Alpha  occ. eigenvalues --   -1.20700  -1.17761  -1.05977  -1.03959  -1.00850
 Alpha  occ. eigenvalues --   -0.96487  -0.93443  -0.88721  -0.85377  -0.84757
 Alpha  occ. eigenvalues --   -0.82911  -0.77444  -0.76089  -0.75075  -0.74263
 Alpha  occ. eigenvalues --   -0.73276  -0.71978  -0.71889  -0.71460  -0.69305
 Alpha  occ. eigenvalues --   -0.68854  -0.66206  -0.65259  -0.64595  -0.63182
 Alpha  occ. eigenvalues --   -0.62449  -0.62009  -0.61816  -0.61199  -0.60599
 Alpha  occ. eigenvalues --   -0.59005  -0.58227  -0.57895  -0.57132  -0.56458
 Alpha  occ. eigenvalues --   -0.56228  -0.54934  -0.53947  -0.52782  -0.50849
 Alpha  occ. eigenvalues --   -0.49915  -0.49288  -0.47564  -0.46232
 Alpha virt. eigenvalues --   -0.09147  -0.08221  -0.06832  -0.05836  -0.05034
 Alpha virt. eigenvalues --   -0.04618  -0.03606  -0.03278  -0.03068  -0.02770
 Alpha virt. eigenvalues --   -0.02536  -0.01805  -0.01172  -0.00797  -0.00616

 Mulliken charges:
               1
     1  C    1.205106
     2  C    0.799121
     3  C    1.225404
     4  C    0.599185
     5  C    0.248185
     6  N   -0.617610
     7  C    1.078238
     8  C    0.985754
     9  C    0.745621
    10  C    1.266208
    11  N   -1.125720
    12  O   -0.437770
    13  H   -0.460286
    14  H   -0.224785
    15  H   -0.241105
    16  H   -0.302112
    17  H   -0.488003
    18  H   -0.498639
    19  H   -0.921891
    20  H   -1.217309
    21  H   -0.627697
    22  H   -0.612980
    23  H   -0.925968
    24  C    1.310114
    25  H    0.173312
    26  H    0.242754
    27  H    0.200836
    28  H    0.263468
    29  O   -0.373238
    30  H    0.154351
    31  O   -0.699711
    32  H    0.385334
    33  H    0.213462
    34  H   -0.121644
    35  H   -0.183293
    36  H   -0.075205
    37  O   -0.412406
    38  H    0.219838
    39  H    0.251080
 Sum of Mulliken charges =   1.00000

 Dipole moment (field-independent basis, Debye):
    X=              3.6307    Y=             -1.2712    Z=              0.5136  Tot=              3.8809
 Quadrupole moment (field-independent basis, Debye-Ang):
   XX=            -57.2880   YY=            -65.2749   ZZ=            -83.9287
   XY=              0.7696   XZ=              0.9060   YZ=              4.2878

  Exact polarizability: 183.456  -9.948 158.790   1.463  10.432 135.492
 Approx polarizability: 189.029  -4.598 177.492   3.625  16.833 153.986

                      1                      2                      3
                      A                      A                      A
 Frequencies --     19.6873                40.3551                52.2346
 Red. masses --      4.4009                 4.1469                 5.1773
 Frc consts  --      0.0010                 0.0040                 0.0083
 IR Inten    --      1.6396                 1.5952                 1.0780

                      4                      5                      6
                      A                      A                      A
 Frequencies --     56.9835                68.1208                75.6465
 Red. masses --      2.4851                 3.5640                 6.3005
 Frc consts  --      0.0048                 0.0097                 0.0212
 IR Inten    --      1.4896                 1.7166                 0.4733

                      7                      8                      9
                      A                      A                      A
 Frequencies --     81.9861                89.6442               109.7772
 Red. masses --      5.4936                 4.1526                 5.4049
 Frc consts  --      0.0218                 0.0197                 0.0384
 IR Inten    --      0.0810                 1.7451                 4.0439

                     10                     11                     12
                      A                      A                      A
 Frequencies --    125.4473               146.3304               162.5156
 Red. masses --      3.0126                 2.8258                 1.1927
 Frc consts  --      0.0279                 0.0356                 0.0186
 IR Inten    --      2.1416                12.5973                55.1646

                     13                     14                     15
                      A                      A                      A
 Frequencies --    177.1714               186.9826               195.4223
 Red. masses --      1.2496                 4.7199                 3.7676
 Frc consts  --      0.0231                 0.0972                 0.0848
 IR Inten    --     97.0338                17.2757                24.0403

                     16                     17                     18
                      A                      A                      A
 Frequencies --    205.6112               227.3167               238.3906
 Red. masses --      4.1621                 2.7869                 1.1430
 Frc consts  --      0.1037                 0.0848                 0.0383
 IR Inten    --     23.9485                 1.0625                94.6475

                     19                     20                     21
                      A                      A                      A
 Frequencies --    249.3755               260.3953               274.8078
 Red. masses --      1.1514                 2.9792                 4.3971
 Frc consts  --      0.0422                 0.1190                 0.1956
 IR Inten    --     11.5283                 8.1625                19.2141

                     22                     23                     24
                      A                      A                      A
 Frequencies --    325.9344               337.4530               347.4566
 Red. masses --      4.2261                 2.2014                 1.5086
 Frc consts  --      0.2645                 0.1477                 0.1073
 IR Inten    --      2.4471                13.8547                15.1937

                     25                     26                     27
                      A                      A                      A
 Frequencies --    387.7454               414.4949               427.0286
 Red. masses --      2.9861                 2.6978                 1.6694
 Frc consts  --      0.2645                 0.2731                 0.1794
 IR Inten    --      0.5877                10.7306                31.6401

                     28                     29                     30
                      A                      A                      A
 Frequencies --    433.2228               470.5998               522.7159
 Red. masses --      1.4844                 1.1104                 1.3864
 Frc consts  --      0.1641                 0.1449                 0.2232
 IR Inten    --    108.4981                15.8598                27.4999

                     31                     32                     33
                      A                      A                      A
 Frequencies --    544.4280               562.9490               585.4507
 Red. masses --      2.4039                 2.8173                 1.0897
 Frc consts  --      0.4198                 0.5260                 0.2201
 IR Inten    --     14.2123                14.3677                63.8701

                     34                     35                     36
                      A                      A                      A
 Frequencies --    638.0192               642.0574               653.3907
 Red. masses --      3.4049                 1.0659                 5.3052
 Frc consts  --      0.8166                 0.2589                 1.3344
 IR Inten    --      7.5880                76.0715                 6.5569

                     37                     38                     39
                      A                      A                      A
 Frequencies --    680.2039               736.3624               791.4181
 Red. masses --      5.7142                 1.9678                 1.2788
 Frc consts  --      1.5577                 0.6287                 0.4719
 IR Inten    --      1.6218                47.0671                 3.7898

                     40                     41                     42
                      A                      A                      A
 Frequencies --    805.6699               812.2582               837.8621
 Red. masses --      1.3613                 1.4291                 1.7739
 Frc consts  --      0.5206                 0.5555                 0.7337
 IR Inten    --    110.6594                43.6033                27.2767

                     43                     44                     45
                      A                      A                      A
 Frequencies --    866.4574               920.0424               935.1210
 Red. masses --      1.0962                 2.9125                 2.6587
 Frc consts  --      0.4849                 1.4525                 1.3698
 IR Inten    --     54.5451                16.3400                 8.1405

                     46                     47                     48
                      A                      A                      A
 Frequencies --    950.0719               956.2454               981.8019
 Red. masses --      1.8498                 1.0563                 1.3217
 Frc consts  --      0.9837                 0.5691                 0.7506
 IR Inten    --      5.0809                76.3964                 1.9114

                     49                     50                     51
                      A                      A                      A
 Frequencies --    988.2733              1004.6380              1030.4339
 Red. masses --      1.7162                 1.6869                 1.4395
 Frc consts  --      0.9876                 1.0031                 0.9005
 IR Inten    --      5.9519                 8.4098                 0.8196

                     52                     53                     54
                      A                      A                      A
 Frequencies --   1042.0855              1052.1708              1062.5434
 Red. masses --      1.8304                 4.9512                 2.7419
 Frc consts  --      1.1711                 3.2295                 1.8239
 IR Inten    --     10.8363                 8.6785                 6.9801

                     55                     56                     57
                      A                      A                      A
 Frequencies --   1091.9540              1103.5093              1133.7771
 Red. masses --      2.2436                 2.3498                 1.4739
 Frc consts  --      1.5762                 1.6859                 1.1163
 IR Inten    --      2.5264                 3.8422                 4.2279

                     58                     59                     60
                      A                      A                      A
 Frequencies --   1151.2818              1157.3883              1216.9737
 Red. masses --      2.2223                 1.4028                 1.6512
 Frc consts  --      1.7355                 1.1071                 1.4409
 IR Inten    --     15.4735                10.3636                 1.1256

                     61                     62                     63
                      A                      A                      A
 Frequencies --   1224.4240              1233.7589              1244.6653
 Red. masses --      1.4562                 1.5590                 1.3443
 Frc consts  --      1.2863                 1.3981                 1.2271
 IR Inten    --      7.0408                 4.2653                 9.7161

                     64                     65                     66
                      A                      A                      A
 Frequencies --   1270.3067              1286.9103              1301.1459
 Red. masses --      1.4601                 1.2594                 1.5528
 Frc consts  --      1.3882                 1.2289                 1.5489
 IR Inten    --      1.1188                 3.3919                 1.0368

                     67                     68                     69
                      A                      A                      A
 Frequencies --   1318.2974              1335.8974              1371.1750
 Red. masses --      3.2009                 1.4135                 1.2816
 Frc consts  --      3.2776                 1.4863                 1.4196
 IR Inten    --      0.6358                 1.4297                 1.5822

                     70                     71                     72
                      A                      A                      A
 Frequencies --   1378.4620              1380.8756              1410.8159
 Red. masses --      1.4828                 1.3510                 1.5885
 Frc consts  --      1.6601                 1.5178                 1.8629
 IR Inten    --      2.9669                 1.1651                 1.7073

                     73                     74                     75
                      A                      A                      A
 Frequencies --   1464.3019              1481.4929              1485.0096
 Red. masses --      1.1608                 1.0677                 1.4539
 Frc consts  --      1.4665                 1.3807                 1.8890
 IR Inten    --      2.6336                 4.1978                10.0418

                     76                     77                     78
                      A                      A                      A
 Frequencies --   1485.2419              1491.3051              1502.7630
 Red. masses --      1.4256                 1.0786                 1.0966
 Frc consts  --      1.8528                 1.4134                 1.4591
 IR Inten    --     19.3980                 7.4258                21.1771

                     79                     80                     81
                      A                      A                      A
 Frequencies --   1516.5357              1522.7563              1536.3309
 Red. masses --      1.1772                 1.1164                 1.7518
 Frc consts  --      1.5952                 1.5253                 2.4362
 IR Inten    --     45.1020                21.0778                 7.6725

                     82                     83                     84
                      A                      A                      A
 Frequencies --   1544.3980              1627.5685              1654.4987
 Red. masses --      1.3522                 1.0834                 1.0764
 Frc consts  --      1.9003                 1.6908                 1.7361
 IR Inten    --     18.0142                36.3155                30.8348

                     85                     86                     87
                      A                      A                      A
 Frequencies --   1665.5924              1672.9921              1688.8893
 Red. masses --      4.3127                 1.1445                 5.3355
 Frc consts  --      7.0491                 1.8874                 8.9666
 IR Inten    --     45.4886               106.6805                24.1260

                     88                     89                     90
                      A                      A                      A
 Frequencies --   1695.1454              3068.5221              3073.7603
 Red. masses --      1.0890                 1.0354                 1.0853
 Frc consts  --      1.8437                 5.7438                 6.0412
 IR Inten    --      8.2582               103.5840                81.7183

                     91                     92                     93
                      A                      A                      A
 Frequencies --   3097.8308              3108.1384              3114.2202
 Red. masses --      1.0704                 1.0627                 1.0683
 Frc consts  --      6.0521                 6.0485                 6.1046
 IR Inten    --    229.0028                15.4687               151.0035

                     94                     95                     96
                      A                      A                      A
 Frequencies --   3119.7523              3158.4399              3170.8846
 Red. masses --      1.0705                 1.1064                 1.1064
 Frc consts  --      6.1388                 6.5031                 6.5542
 IR Inten    --    188.8779                 2.6418                 4.3297

                     97                     98                     99
                      A                      A                      A
 Frequencies --   3180.2753              3182.0158              3185.6644
 Red. masses --      1.1076                 1.1061                 1.1083
 Frc consts  --      6.6004                 6.5987                 6.6266
 IR Inten    --     11.2220                 5.5908                31.8376

                    100                    101                    102
                      A                      A                      A
 Frequencies --   3195.4049              3199.0470              3209.8175
 Red. masses --      1.0918                 1.0915                 1.0924
 Frc consts  --      6.5684                 6.5815                 6.6315
 IR Inten    --      3.9522                 4.4254                 6.7305

                    103                    104                    105
                      A                      A                      A
 Frequencies --   3240.6487              3279.2269              3414.1453
 Red. masses --      1.0982                 1.0673                 1.0644
 Frc consts  --      6.7949                 6.7620                 7.3103
 IR Inten    --      4.1489               933.7328              1437.7639

                    106                    107                    108
                      A                      A                      A
 Frequencies --   3456.2222              3701.1970              3933.8194
 Red. masses --      1.0631                 1.0579                 1.0665
 Frc consts  --      7.4822                 8.5383                 9.7243
 IR Inten    --    560.2048               391.7522                91.9873

                    109                    110                    111
                      A                      A                      A
 Frequencies --   3944.0476              3950.5491              3952.1263
 Red. masses --      1.0675                 1.0678                 1.0711
 Frc consts  --      9.7841                 9.8186                 9.8567
 IR Inten    --    119.5635               139.0136                65.5065

 - Thermochemistry -
 -------------------
 Temperature   298.150 Kelvin.  Pressure   1.00000 Atm.
 Atom     1 has atomic number  6 and mass  12.00000

 Molecular mass:   235.16578 amu.
 Principal axes and moments of inertia in atomic units:
                           1         2         3
     Eigenvalues --  3224.152504898.279826045.08514
           X            0.99993   0.01146  -0.00158
           Y           -0.01144   0.99981   0.01549
           Z            0.00176  -0.01547   0.99988
 This molecule is an asymmetric top.
 Rotational symmetry number  1.
 Warning -- assumption of classical behavior for rotation
           may cause significant error
 Rotational temperatures (Kelvin)      0.02686     0.01768     0.01433
 Rotational constants (GHZ):           0.55976     0.36844     0.29855
 Zero-point vibrational energy     905411.6 (Joules/Mol)
                                  216.39857 (Kcal/Mol)
 Warning -- explicit consideration of  33 degrees of freedom as
           vibrations may cause significant error
 Vibrational temperatures:     28.33    58.06    75.15    81.99    98.01
          (Kelvin)            108.84   117.96   128.98   157.94   180.49
                              210.54   233.82   254.91   269.03   281.17
                              295.83   327.06   342.99   358.80   374.65
                              395.39   468.95   485.52   499.91   557.88
                              596.37   614.40   623.31   677.09   752.07
                              783.31   809.96   842.33   917.97   923.78
                              940.08   978.66  1059.46  1138.67  1159.18
                             1168.66  1205.50  1246.64  1323.74  1345.43
                             1366.94  1375.82  1412.59  1421.90  1445.45
                             1482.56  1499.33  1513.84  1528.76  1571.08
                             1587.70  1631.25  1656.44  1665.22  1750.95
                             1761.67  1775.10  1790.80  1827.69  1851.58
                             1872.06  1896.74  1922.06  1972.81  1983.30
                             1986.77  2029.85  2106.80  2131.54  2136.60
                             2136.93  2145.66  2162.14  2181.96  2190.91
                             2210.44  2222.04  2341.71  2380.45  2396.42
                             2407.06  2429.93  2438.94  4414.92  4422.46
                             4457.09  4471.92  4480.67  4488.63  4544.29
                             4562.20  4575.71  4578.21  4583.46  4597.47
                             4602.72  4618.21  4662.57  4718.08  4912.19
                             4972.73  5325.20  5659.89  5674.60  5683.96
                             5686.23

 Zero-point correction=                           0.344853 (Hartree/Particle)
 Thermal correction to Energy=                    0.366647
 Thermal correction to Enthalpy=                  0.367591
 Thermal correction to Gibbs Free Energy=         0.293498
 Sum of electronic and zero-point Energies=           -804.694376
 Sum of electronic and thermal Energies=              -804.672583
 Sum of electronic and thermal Enthalpies=            -804.671638
 Sum of electronic and thermal Free Energies=         -804.745732

                     E (Thermal)             CV                S
                      KCal/Mol        Cal/Mol-Kelvin    Cal/Mol-Kelvin
 Total                  230.074             77.999            155.942
 Electronic               0.000              0.000              0.000
 Translational            0.889              2.981             42.267
 Rotational               0.889              2.981             32.923
 Vibrational            228.297             72.038             80.752
 Vibration     1          0.593              1.986              6.665
 Vibration     2          0.594              1.981              5.242
 Vibration     3          0.596              1.977              4.731
 Vibration     4          0.596              1.975              4.559
 Vibration     5          0.598              1.969              4.207
 Vibration     6          0.599              1.965              4.001
 Vibration     7          0.600              1.961              3.843
 Vibration     8          0.602              1.957              3.668
 Vibration     9          0.606              1.941              3.273
 Vibration    10          0.610              1.928              3.015
 Vibration    11          0.617              1.907              2.719
 Vibration    12          0.623              1.888              2.520
 Vibration    13          0.628              1.870              2.358
 Vibration    14          0.632              1.858              2.258
 Vibration    15          0.636              1.846              2.176
 Vibration    16          0.640              1.832              2.082
 Vibration    17          0.651              1.799              1.900
 Vibration    18          0.656              1.782              1.815
 Vibration    19          0.662              1.764              1.735
 Vibration    20          0.668              1.745              1.659
 Vibration    21          0.677              1.720              1.566
 Vibration    22          0.710              1.624              1.280
 Vibration    23          0.718              1.601              1.224
 Vibration    24          0.725              1.580              1.178
 Vibration    25          0.756              1.496              1.009
 Vibration    26          0.778              1.439              0.911
 Vibration    27          0.789              1.411              0.868
 Vibration    28          0.794              1.398              0.848
 Vibration    29          0.828              1.315              0.736
 Vibration    30          0.878              1.200              0.604
 Vibration    31          0.900              1.152              0.556
 Vibration    32          0.919              1.111              0.518
 Vibration    33          0.942              1.063              0.475

                           ! Non-Optimized Parameters !
 Normal termination of Gaussian 16 at Wed Feb  1 16:34:24 2023.
