 Gaussian 16, Revision A.03,
 Gaussian 16:  ES64L-G16RevA.03 25-Dec-2016

 -----------------------------
 # wB97XD/aug-cc-pVDZ opt freq
 -----------------------------

 ----
 blah
 ----
 Symbolic Z-matrix:
 Charge =  1 Multiplicity = 1

 SCF Done:  E(RwB97XD) =  -805.026068622     A.U. after   15 cycles
 SCF Done:  E(RwB97XD) =  -805.028983741     A.U. after   13 cycles
 SCF Done:  E(RwB97XD) =  -805.028538822     A.U. after   13 cycles
 SCF Done:  E(RwB97XD) =  -805.030825030     A.U. after   13 cycles
 SCF Done:  E(RwB97XD) =  -805.031554592     A.U. after   13 cycles
 SCF Done:  E(RwB97XD) =  -805.032102743     A.U. after   15 cycles
 SCF Done:  E(RwB97XD) =  -805.032376854     A.U. after   13 cycles
 SCF Done:  E(RwB97XD) =  -805.032634812     A.U. after   13 cycles
 SCF Done:  E(RwB97XD) =  -805.032962330     A.U. after   15 cycles
 SCF Done:  E(RwB97XD) =  -805.033017839     A.U. after   13 cycles
 SCF Done:  E(RwB97XD) =  -805.033672126     A.U. after   12 cycles
 SCF Done:  E(RwB97XD) =  -805.033673360     A.U. after   10 cycles
 SCF Done:  E(RwB97XD) =  -805.033675202     A.U. after   11 cycles
 SCF Done:  E(RwB97XD) =  -805.033675875     A.U. after   10 cycles
 SCF Done:  E(RwB97XD) =  -805.033676128     A.U. after    9 cycles
 SCF Done:  E(RwB97XD) =  -805.033676423     A.U. after    8 cycles
 SCF Done:  E(RwB97XD) =  -805.033676688     A.U. after    8 cycles
 SCF Done:  E(RwB97XD) =  -805.033676828     A.U. after    9 cycles
 SCF Done:  E(RwB97XD) =  -805.033676906     A.U. after    9 cycles
 Optimization completed.
    -- Stationary point found.
 Normal termination of Gaussian 16 at Mon Jan 30 19:37:32 2023.

 ----------------------------------------------------------------------
 #N Geom=AllCheck Guess=TCheck SCRF=Check GenChk RwB97XD/Aug-CC-pVDZ Fr
 eq
 ----------------------------------------------------------------------

 Structure from the checkpoint file:  "/gscratch/scrubbed/gds001/Gau-10583.chk"
 ----
 blah
 ----
 Charge =  1 Multiplicity = 1

                         Standard orientation:
 ---------------------------------------------------------------------
 Center     Atomic      Atomic             Coordinates (Angstroms)
 Number     Number       Type             X           Y           Z
 ---------------------------------------------------------------------
      1          7           0       -2.055658   -0.048499   -0.748881
      2          6           0       -1.577201    1.001015    0.158328
      3          6           0       -1.826691    0.410231    1.564061
      4          6           0       -2.990807   -0.587572    1.357026
      5          6           0       -3.321842   -0.482048   -0.134492
      6          6           0       -0.138100    1.400012   -0.052324
      7          6           0        0.822759    0.475308   -0.434894
      8          7           0        2.111574    0.823252   -0.522726
      9          6           0        2.557241    2.055345   -0.240039
     10          6           0        1.652618    3.030274    0.134695
     11          6           0        0.300921    2.696749    0.222656
     12          8           0        3.432719   -1.464199   -0.936707
     13          8           0       -0.675391   -2.456119   -0.818083
     14          1           0       -3.655996   -1.426242   -0.581418
     15          1           0       -3.861779   -0.349309    1.975551
     16          1           0       -2.671303   -1.604670    1.608707
     17          1           0       -2.066833    1.205866    2.277668
     18          1           0       -0.921535   -0.094556    1.920659
     19          1           0       -4.107296    0.274788   -0.313595
     20          1           0       -2.200318    1.906795    0.024664
     21          1           0        0.595643   -0.558971   -0.676947
     22          1           0        3.627743    2.222147   -0.324448
     23          1           0        2.002277    4.035391    0.357126
     24          1           0       -0.421829    3.457318    0.519691
     25          6           0       -2.213826    0.399768   -2.128233
     26          1           0        2.772274    0.050094   -0.764632
     27          1           0       -1.189142   -1.606812   -0.780319
     28          1           0       -1.045165   -2.982920   -1.529558
     29          1           0        2.910697   -2.156867   -0.484431
     30          1           0        3.888616   -1.878934   -1.671951
     31          8           0        1.634086   -2.984309    0.455204
     32          1           0        1.715962   -3.888472    0.768270
     33          1           0        0.757307   -2.913180    0.016577
     34          1           0       -2.618423   -0.418534   -2.735689
     35          1           0       -1.241886    0.688105   -2.547688
     36          1           0       -2.901025    1.261167   -2.202747
     37          8           0        1.511750   -0.685221    2.121910
     38          1           0        1.617834   -1.576425    1.753193
     39          1           0        1.807018   -0.744771    3.033274
 ---------------------------------------------------------------------

 SCF Done:  E(RwB97XD) =  -805.033676906     A.U. after    1 cycles

 The electronic state is 1-A.
 Alpha  occ. eigenvalues --  -19.40174 -19.39778 -19.39011 -19.36848 -14.67139
 Alpha  occ. eigenvalues --  -14.58205 -10.50527 -10.50061 -10.47262 -10.46715
 Alpha  occ. eigenvalues --  -10.46347 -10.46108 -10.43417 -10.43281 -10.40599
 Alpha  occ. eigenvalues --  -10.40095  -1.25670  -1.24904  -1.23711  -1.22842
 Alpha  occ. eigenvalues --   -1.20982  -1.17465  -1.07912  -1.04234  -1.00230
 Alpha  occ. eigenvalues --   -0.95671  -0.90187  -0.89458  -0.88611  -0.82359
 Alpha  occ. eigenvalues --   -0.79735  -0.79051  -0.76113  -0.75295  -0.74621
 Alpha  occ. eigenvalues --   -0.74320  -0.73139  -0.72142  -0.70856  -0.69589
 Alpha  occ. eigenvalues --   -0.68372  -0.67421  -0.65423  -0.64397  -0.63797
 Alpha  occ. eigenvalues --   -0.63332  -0.62017  -0.61647  -0.59195  -0.58975
 Alpha  occ. eigenvalues --   -0.58406  -0.57517  -0.57195  -0.56394  -0.55335
 Alpha  occ. eigenvalues --   -0.53968  -0.53618  -0.53174  -0.52525  -0.52373
 Alpha  occ. eigenvalues --   -0.51714  -0.49725  -0.48466  -0.44749
 Alpha virt. eigenvalues --   -0.13361  -0.10224  -0.06678  -0.05415  -0.04907
 Alpha virt. eigenvalues --   -0.04589  -0.03609  -0.03173  -0.03126  -0.02536
 Alpha virt. eigenvalues --   -0.02091  -0.01463  -0.01059  -0.00499  -0.00361

 Mulliken charges:
               1
     1  N   -1.166092
     2  C    1.142075
     3  C    1.225035
     4  C    0.857364
     5  C    1.299744
     6  C    0.858924
     7  C    0.960055
     8  N   -0.064762
     9  C    0.690558
    10  C    0.370688
    11  C    1.098891
    12  O   -0.423119
    13  O   -0.418478
    14  H   -0.550758
    15  H   -0.294189
    16  H   -0.302415
    17  H   -0.531372
    18  H   -0.358501
    19  H   -0.549125
    20  H   -0.854932
    21  H   -1.324435
    22  H   -0.674712
    23  H   -0.568784
    24  H   -0.888782
    25  C    1.029976
    26  H    0.074472
    27  H    0.497375
    28  H    0.164224
    29  H    0.216448
    30  H    0.170738
    31  O   -0.659683
    32  H    0.244143
    33  H    0.346662
    34  H   -0.198449
    35  H   -0.177203
    36  H   -0.225224
    37  O   -0.451903
    38  H    0.225177
    39  H    0.210370
 Sum of Mulliken charges =   1.00000

 Dipole moment (field-independent basis, Debye):
    X=              2.2058    Y=              0.3869    Z=             -1.5970  Tot=              2.7505
 Quadrupole moment (field-independent basis, Debye-Ang):
   XX=            -62.6037   YY=            -57.2902   ZZ=            -83.6584
   XY=              0.4926   XZ=             -1.1877   YZ=              3.6371

  Exact polarizability: 182.799   9.425 168.179  -4.219   5.213 133.607
 Approx polarizability: 188.541   3.617 187.133  -5.157  10.066 149.020

                      1                      2                      3
                      A                      A                      A
 Frequencies --     12.4552                37.9330                51.2447
 Red. masses --      4.6075                 4.1703                 4.1736
 Frc consts  --      0.0004                 0.0035                 0.0065
 IR Inten    --      2.4690                 0.2656                 0.6539

                      4                      5                      6
                      A                      A                      A
 Frequencies --     62.4785                68.1353                75.6692
 Red. masses --      5.7388                 5.3482                 3.8993
 Frc consts  --      0.0132                 0.0146                 0.0132
 IR Inten    --      1.9471                 1.9967                 3.0211

                      7                      8                      9
                      A                      A                      A
 Frequencies --     93.4883                96.1892               115.6540
 Red. masses --      4.6323                 4.0022                 3.1504
 Frc consts  --      0.0239                 0.0218                 0.0248
 IR Inten    --      4.3696                 9.6963                 0.3095

                     10                     11                     12
                      A                      A                      A
 Frequencies --    129.1642               141.6236               161.8241
 Red. masses --      1.1089                 4.8033                 3.3299
 Frc consts  --      0.0109                 0.0568                 0.0514
 IR Inten    --     87.9795                 4.7321                 2.7995

                     13                     14                     15
                      A                      A                      A
 Frequencies --    169.2449               186.4322               193.3191
 Red. masses --      2.4293                 1.9083                 2.0579
 Frc consts  --      0.0410                 0.0391                 0.0453
 IR Inten    --      8.0134                57.5645                15.4736

                     16                     17                     18
                      A                      A                      A
 Frequencies --    200.4960               213.2258               220.5560
 Red. masses --      2.2698                 1.1834                 4.7317
 Frc consts  --      0.0538                 0.0317                 0.1356
 IR Inten    --     14.4906                95.7208                26.8455

                     19                     20                     21
                      A                      A                      A
 Frequencies --    243.9061               254.4801               264.2635
 Red. masses --      1.1039                 4.9748                 3.1310
 Frc consts  --      0.0387                 0.1898                 0.1288
 IR Inten    --      4.2189                39.9291                 1.2918

                     22                     23                     24
                      A                      A                      A
 Frequencies --    301.2336               304.1516               329.4157
 Red. masses --      3.3217                 3.9419                 1.2110
 Frc consts  --      0.1776                 0.2148                 0.0774
 IR Inten    --     13.4735                 4.2337                 4.1991

                     25                     26                     27
                      A                      A                      A
 Frequencies --    402.7248               410.7300               424.4611
 Red. masses --      2.9393                 2.8286                 1.2670
 Frc consts  --      0.2809                 0.2811                 0.1345
 IR Inten    --      9.7889                 2.7257                75.2023

                     28                     29                     30
                      A                      A                      A
 Frequencies --    436.4131               481.3593               507.9566
 Red. masses --      2.1370                 1.0817                 1.1216
 Frc consts  --      0.2398                 0.1477                 0.1705
 IR Inten    --     13.7097                44.7726               148.1015

                     31                     32                     33
                      A                      A                      A
 Frequencies --    531.8341               572.0329               584.6872
 Red. masses --      2.4883                 1.2260                 2.3173
 Frc consts  --      0.4147                 0.2364                 0.4667
 IR Inten    --      0.5753                 6.5552                22.1240

                     34                     35                     36
                      A                      A                      A
 Frequencies --    613.1978               636.8824               646.4185
 Red. masses --      1.2905                 4.2709                 3.2335
 Frc consts  --      0.2859                 1.0207                 0.7961
 IR Inten    --     40.8603                 8.2651                 7.8422

                     37                     38                     39
                      A                      A                      A
 Frequencies --    669.9881               705.5841               766.5502
 Red. masses --      5.0354                 1.9676                 1.0895
 Frc consts  --      1.3317                 0.5772                 0.3772
 IR Inten    --      2.1117                41.1333               209.8158

                     40                     41                     42
                      A                      A                      A
 Frequencies --    783.5522               831.9951               841.8662
 Red. masses --      1.4857                 1.6091                 1.6405
 Frc consts  --      0.5374                 0.6563                 0.6850
 IR Inten    --      6.8742                36.7496                32.8828

                     43                     44                     45
                      A                      A                      A
 Frequencies --    854.2584               896.1467               934.1738
 Red. masses --      1.2411                 1.0653                 1.6141
 Frc consts  --      0.5336                 0.5040                 0.8299
 IR Inten    --     38.1312                43.2820                 9.9814

                     46                     47                     48
                      A                      A                      A
 Frequencies --    936.8000               957.3600               967.5032
 Red. masses --      3.4488                 2.1144                 1.3704
 Frc consts  --      1.7832                 1.1418                 0.7558
 IR Inten    --      8.9448                11.6327                13.2831

                     49                     50                     51
                      A                      A                      A
 Frequencies --    976.0979              1001.3487              1030.5230
 Red. masses --      1.6264                 1.9219                 1.3918
 Frc consts  --      0.9130                 1.1354                 0.8708
 IR Inten    --      1.1330                 2.0026                 0.4418

                     52                     53                     54
                      A                      A                      A
 Frequencies --   1046.4344              1057.9941              1073.1635
 Red. masses --      3.8791                 2.3594                 1.8602
 Frc consts  --      2.5027                 1.5560                 1.2622
 IR Inten    --      2.1208                 1.0187                22.3382

                     55                     56                     57
                      A                      A                      A
 Frequencies --   1092.6477              1118.3962              1143.2919
 Red. masses --      2.1745                 2.2833                 1.2890
 Frc consts  --      1.5296                 1.6827                 0.9927
 IR Inten    --      2.3573                13.5510                 5.0962

                     58                     59                     60
                      A                      A                      A
 Frequencies --   1146.4639              1152.4449              1196.6159
 Red. masses --      1.2726                 1.3007                 1.9746
 Frc consts  --      0.9855                 1.0178                 1.6659
 IR Inten    --     19.1019                19.4633                15.4142

                     61                     62                     63
                      A                      A                      A
 Frequencies --   1215.3246              1226.7320              1241.7845
 Red. masses --      1.2798                 1.5159                 1.7405
 Frc consts  --      1.1137                 1.3441                 1.5813
 IR Inten    --      7.2930                10.7023                11.2255

                     64                     65                     66
                      A                      A                      A
 Frequencies --   1260.1176              1264.5007              1296.2483
 Red. masses --      1.6916                 1.7115                 1.6581
 Frc consts  --      1.5826                 1.6124                 1.6415
 IR Inten    --      7.3206                12.5162                 2.5352

                     67                     68                     69
                      A                      A                      A
 Frequencies --   1300.1226              1328.9315              1331.9260
 Red. masses --      1.3691                 1.7275                 1.3650
 Frc consts  --      1.3635                 1.7975                 1.4267
 IR Inten    --      7.2273                22.5431                 4.9768

                     70                     71                     72
                      A                      A                      A
 Frequencies --   1362.4880              1374.9798              1382.6659
 Red. masses --      1.2895                 2.0715                 1.5046
 Frc consts  --      1.4103                 2.3074                 1.6948
 IR Inten    --      2.3873                14.2228                 3.1416

                     73                     74                     75
                      A                      A                      A
 Frequencies --   1403.9733              1435.7553              1452.6423
 Red. masses --      1.9013                 1.5886                 1.2207
 Frc consts  --      2.2081                 1.9294                 1.5177
 IR Inten    --      0.6887                26.8308                 8.4447

                     76                     77                     78
                      A                      A                      A
 Frequencies --   1480.9094              1488.0762              1493.0178
 Red. masses --      1.0483                 1.0580                 1.0826
 Frc consts  --      1.3546                 1.3804                 1.4218
 IR Inten    --     14.1870                 9.5210                 3.7614

                     79                     80                     81
                      A                      A                      A
 Frequencies --   1510.3940              1516.2808              1526.6623
 Red. masses --      1.0862                 1.9225                 1.2006
 Frc consts  --      1.4600                 2.6042                 1.6487
 IR Inten    --     13.4758                34.1885                 4.6889

                     82                     83                     84
                      A                      A                      A
 Frequencies --   1625.7465              1636.2382              1659.5839
 Red. masses --      2.1090                 1.0908                 1.0809
 Frc consts  --      3.2842                 1.7206                 1.7540
 IR Inten    --     73.4742                60.1806                83.9223

                     85                     86                     87
                      A                      A                      A
 Frequencies --   1668.5928              1687.8976              1710.7377
 Red. masses --      1.0715                 1.1329                 3.2959
 Frc consts  --      1.7577                 1.9016                 5.6832
 IR Inten    --     20.0779                 9.5045                33.2345

                     88                     89                     90
                      A                      A                      A
 Frequencies --   1715.6346              2972.1650              2999.9316
 Red. masses --      3.5829                 1.0833                 1.0705
 Frc consts  --      6.2135                 5.6385                 5.6762
 IR Inten    --      9.0565                48.3232                54.9419

                     91                     92                     93
                      A                      A                      A
 Frequencies --   3002.6844              3075.9045              3092.6928
 Red. masses --      1.0482                 1.0947                 1.0618
 Frc consts  --      5.5684                 6.1021                 5.9837
 IR Inten    --     76.7484              1246.0669                13.2324

                     94                     95                     96
                      A                      A                      A
 Frequencies --   3103.9957              3106.2483              3120.6575
 Red. masses --      1.0656                 1.0881                 1.0919
 Frc consts  --      6.0492                 6.1858                 6.2650
 IR Inten    --     15.1969                18.6917                19.3438

                     97                     98                     99
                      A                      A                      A
 Frequencies --   3145.7571              3146.2057              3164.4032
 Red. masses --      1.1046                 1.1069                 1.1064
 Frc consts  --      6.4405                 6.4555                 6.5274
 IR Inten    --     12.8805                 7.1852                21.8273

                    100                    101                    102
                      A                      A                      A
 Frequencies --   3207.9435              3219.9999              3247.2849
 Red. masses --      1.0926                 1.0721                 1.0930
 Frc consts  --      6.6246                 6.5493                 6.7904
 IR Inten    --      0.5238              1254.0592                 3.1749

                    103                    104                    105
                      A                      A                      A
 Frequencies --   3262.2803              3263.8679              3487.4482
 Red. masses --      1.0930                 1.1000                 1.0625
 Frc consts  --      6.8536                 6.9040                 7.6137
 IR Inten    --    215.2752                38.4697               689.1858

                    106                    107                    108
                      A                      A                      A
 Frequencies --   3577.6907              3728.2080              3936.5420
 Red. masses --      1.0614                 1.0565                 1.0679
 Frc consts  --      8.0042                 8.6519                 9.7498
 IR Inten    --    447.9228               330.8615               112.4618

                    109                    110                    111
                      A                      A                      A
 Frequencies --   3944.9059              3949.1815              3951.7239
 Red. masses --      1.0669                 1.0710                 1.0706
 Frc consts  --      9.7826                 9.8414                 9.8499
 IR Inten    --    105.8617               177.1383                63.5710

 - Thermochemistry -
 -------------------
 Temperature   298.150 Kelvin.  Pressure   1.00000 Atm.
 Atom     1 has atomic number  7 and mass  14.00307

 Molecular mass:   235.16578 amu.
 Principal axes and moments of inertia in atomic units:
                           1         2         3
     Eigenvalues --  3418.141274656.979306094.49607
           X            0.99979  -0.01998   0.00360
           Y            0.01997   0.99979   0.00367
           Z           -0.00368  -0.00359   0.99999
 This molecule is an asymmetric top.
 Rotational symmetry number  1.
 Warning -- assumption of classical behavior for rotation
           may cause significant error
 Rotational temperatures (Kelvin)      0.02534     0.01860     0.01421
 Rotational constants (GHZ):           0.52799     0.38753     0.29613
 Zero-point vibrational energy     901159.9 (Joules/Mol)
                                  215.38238 (Kcal/Mol)
 Warning -- explicit consideration of  34 degrees of freedom as
           vibrations may cause significant error
 Vibrational temperatures:     17.92    54.58    73.73    89.89    98.03
          (Kelvin)            108.87   134.51   138.39   166.40   185.84
                              203.76   232.83   243.51   268.23   278.14
                              288.47   306.78   317.33   350.93   366.14
                              380.22   433.41   437.61   473.96   579.43
                              590.95   610.70   627.90   692.57   730.84
                              765.19   823.03   841.23   882.25   916.33
                              930.05   963.96  1015.18  1102.89  1127.36
                             1197.06  1211.26  1229.09  1289.36  1344.07
                             1347.85  1377.43  1392.02  1404.39  1440.72
                             1482.69  1505.59  1522.22  1544.04  1572.08
                             1609.12  1644.94  1649.51  1658.11  1721.66
                             1748.58  1764.99  1786.65  1813.03  1819.33
                             1865.01  1870.59  1912.04  1916.34  1960.32
                             1978.29  1989.35  2020.00  2065.73  2090.03
                             2130.70  2141.01  2148.12  2173.12  2181.59
                             2196.53  2339.09  2354.18  2387.77  2400.73
                             2428.51  2461.37  2468.42  4276.28  4316.23
                             4320.19  4425.54  4449.70  4465.96  4469.20
                             4489.93  4526.04  4526.69  4552.87  4615.52
                             4632.86  4672.12  4693.69  4695.98  5017.66
                             5147.50  5364.06  5663.81  5675.84  5681.99
                             5685.65

 Zero-point correction=                           0.343234 (Hartree/Particle)
 Thermal correction to Energy=                    0.365246
 Thermal correction to Enthalpy=                  0.366190
 Thermal correction to Gibbs Free Energy=         0.291375
 Sum of electronic and zero-point Energies=           -804.690443
 Sum of electronic and thermal Energies=              -804.668431
 Sum of electronic and thermal Enthalpies=            -804.667487
 Sum of electronic and thermal Free Energies=         -804.742302

                     E (Thermal)             CV                S
                      KCal/Mol        Cal/Mol-Kelvin    Cal/Mol-Kelvin
 Total                  229.195             78.615            157.463
 Electronic               0.000              0.000              0.000
 Translational            0.889              2.981             42.267
 Rotational               0.889              2.981             32.939
 Vibrational            227.418             72.653             82.256
 Vibration     1          0.593              1.987              7.575
 Vibration     2          0.594              1.982              5.364
 Vibration     3          0.596              1.977              4.769
 Vibration     4          0.597              1.972              4.377
 Vibration     5          0.598              1.969              4.207
 Vibration     6          0.599              1.965              4.000
 Vibration     7          0.603              1.954              3.586
 Vibration     8          0.603              1.952              3.530
 Vibration     9          0.608              1.936              3.172
 Vibration    10          0.612              1.924              2.958
 Vibration    11          0.615              1.912              2.782
 Vibration    12          0.622              1.889              2.528
 Vibration    13          0.625              1.880              2.444
 Vibration    14          0.632              1.858              2.263
 Vibration    15          0.635              1.849              2.196
 Vibration    16          0.638              1.839              2.129
 Vibration    17          0.644              1.821              2.016
 Vibration    18          0.647              1.810              1.955
 Vibration    19          0.659              1.773              1.774
 Vibration    20          0.665              1.755              1.699
 Vibration    21          0.671              1.738              1.633
 Vibration    22          0.693              1.671              1.410
 Vibration    23          0.695              1.666              1.394
 Vibration    24          0.712              1.617              1.263
 Vibration    25          0.768              1.464              0.953
 Vibration    26          0.775              1.447              0.924
 Vibration    27          0.786              1.417              0.877
 Vibration    28          0.797              1.391              0.838
 Vibration    29          0.838              1.291              0.706
 Vibration    30          0.863              1.232              0.639
 Vibration    31          0.887              1.180              0.583
 Vibration    32          0.928              1.092              0.500
 Vibration    33          0.942              1.064              0.477
 Vibration    34          0.973              1.004              0.428

                           ! Non-Optimized Parameters !
 Normal termination of Gaussian 16 at Mon Jan 30 20:51:39 2023.
