 Gaussian 16, Revision A.03,
 Gaussian 16:  ES64L-G16RevA.03 25-Dec-2016

 -----------------------------
 # wB97XD/aug-cc-pVDZ opt freq
 -----------------------------

 ----
 blah
 ----
 Symbolic Z-matrix:
 Charge =  1 Multiplicity = 1

 SCF Done:  E(RwB97XD) =  -805.030308587     A.U. after   16 cycles
 SCF Done:  E(RwB97XD) =  -805.030533693     A.U. after   13 cycles
 SCF Done:  E(RwB97XD) =  -805.030763193     A.U. after   12 cycles
 SCF Done:  E(RwB97XD) =  -805.031329864     A.U. after   12 cycles
 SCF Done:  E(RwB97XD) =  -805.032568538     A.U. after   14 cycles
 SCF Done:  E(RwB97XD) =  -805.033256890     A.U. after   12 cycles
 SCF Done:  E(RwB97XD) =  -805.033061340     A.U. after   14 cycles
 SCF Done:  E(RwB97XD) =  -805.034311937     A.U. after   13 cycles
 SCF Done:  E(RwB97XD) =  -805.034922448     A.U. after   13 cycles
 SCF Done:  E(RwB97XD) =  -805.035231563     A.U. after   12 cycles
 SCF Done:  E(RwB97XD) =  -805.035753168     A.U. after    9 cycles
 SCF Done:  E(RwB97XD) =  -805.035753651     A.U. after    9 cycles
 SCF Done:  E(RwB97XD) =  -805.035753888     A.U. after    9 cycles
 SCF Done:  E(RwB97XD) =  -805.035754162     A.U. after   10 cycles
 SCF Done:  E(RwB97XD) =  -805.035752785     A.U. after   11 cycles
 SCF Done:  E(RwB97XD) =  -805.035754205     A.U. after   10 cycles
 SCF Done:  E(RwB97XD) =  -805.035754238     A.U. after    9 cycles
 SCF Done:  E(RwB97XD) =  -805.035754292     A.U. after    8 cycles
 SCF Done:  E(RwB97XD) =  -805.035754266     A.U. after    8 cycles
 Optimization completed.
    -- Stationary point found.
 Normal termination of Gaussian 16 at Tue Nov  8 16:41:34 2022.

 ----------------------------------------------------------------------
 #N Geom=AllCheck Guess=TCheck SCRF=Check GenChk RwB97XD/Aug-CC-pVDZ Fr
 eq
 ----------------------------------------------------------------------

 Structure from the checkpoint file:  "/gscratch/scrubbed/gds001/Gau-29945.chk"
 ----
 blah
 ----
 Charge =  1 Multiplicity = 1

                         Standard orientation:
 ---------------------------------------------------------------------
 Center     Atomic      Atomic             Coordinates (Angstroms)
 Number     Number       Type             X           Y           Z
 ---------------------------------------------------------------------
      1          7           0       -2.070180   -0.514167    0.582516
      2          6           0       -1.393508   -0.950210   -0.648643
      3          6           0       -1.556415    0.249079   -1.603434
      4          6           0       -2.823500    0.976697   -1.096009
      5          6           0       -3.296063    0.138424    0.095501
      6          6           0        0.033823   -1.381168   -0.403517
      7          6           0        0.981378   -0.472580    0.055153
      8          7           0        2.248217   -0.851530    0.260287
      9          6           0        2.681435   -2.103174    0.038608
     10          6           0        1.792645   -3.058372   -0.413362
     11          6           0        0.463774   -2.688929   -0.633586
     12          8           0       -0.710532    1.546866    1.831165
     13          8           0       -0.255593    3.303231   -0.174293
     14          8           0        3.753692    1.262612    0.742414
     15          1           0       -4.029578   -0.624749   -0.223303
     16          1           0       -3.599332    1.048392   -1.864555
     17          1           0       -2.568055    1.993677   -0.780925
     18          1           0       -0.686172    0.913983   -1.553962
     19          1           0       -1.645059   -0.095437   -2.638996
     20          1           0       -3.751561    0.729848    0.898655
     21          1           0       -1.934837   -1.821090   -1.066540
     22          1           0        0.760477    0.568427    0.274046
     23          1           0        3.734273   -2.295931    0.228600
     24          1           0        2.134817   -4.074515   -0.593772
     25          1           0       -0.248566   -3.432080   -0.993112
     26          6           0       -2.330434   -1.599767    1.520346
     27          1           0       -1.238840    0.791270    1.461953
     28          1           0        4.041690    1.732550    1.527726
     29          1           0       -1.032441    1.719634    2.718424
     30          1           0        2.919748   -0.098830    0.571663
     31          1           0        3.284967    1.901096    0.158441
     32          1           0       -0.489609    2.812100    0.640842
     33          1           0       -0.507388    4.217924   -0.029633
     34          8           0        2.173167    2.477674   -1.009571
     35          1           0        1.325024    2.897764   -0.746856
     36          1           0        2.475423    2.933097   -1.798347
     37          1           0       -2.933378   -2.403752    1.060555
     38          1           0       -2.877781   -1.210912    2.386955
     39          1           0       -1.384767   -2.025657    1.878451
 ---------------------------------------------------------------------

 SCF Done:  E(RwB97XD) =  -805.035754266     A.U. after    1 cycles

 The electronic state is 1-A.
 Alpha  occ. eigenvalues --  -19.39257 -19.38497 -19.38240 -19.38188 -14.67467
 Alpha  occ. eigenvalues --  -14.58200 -10.51007 -10.50597 -10.47819 -10.47194
 Alpha  occ. eigenvalues --  -10.46841 -10.46361 -10.43418 -10.43254 -10.41094
 Alpha  occ. eigenvalues --  -10.40058  -1.25893  -1.23893  -1.23336  -1.22363
 Alpha  occ. eigenvalues --   -1.21437  -1.17486  -1.08272  -1.04698  -1.00381
 Alpha  occ. eigenvalues --   -0.95863  -0.90602  -0.89695  -0.88794  -0.82521
 Alpha  occ. eigenvalues --   -0.79718  -0.79490  -0.75365  -0.74761  -0.74685
 Alpha  occ. eigenvalues --   -0.73991  -0.73331  -0.73262  -0.70926  -0.69449
 Alpha  occ. eigenvalues --   -0.68736  -0.67956  -0.65649  -0.64662  -0.63777
 Alpha  occ. eigenvalues --   -0.63166  -0.61692  -0.61448  -0.60100  -0.58823
 Alpha  occ. eigenvalues --   -0.58287  -0.57313  -0.56869  -0.56322  -0.55462
 Alpha  occ. eigenvalues --   -0.53750  -0.53358  -0.52920  -0.52450  -0.51965
 Alpha  occ. eigenvalues --   -0.51795  -0.50976  -0.49275  -0.44625
 Alpha virt. eigenvalues --   -0.13796  -0.10949  -0.06464  -0.05473  -0.04906
 Alpha virt. eigenvalues --   -0.04549  -0.03522  -0.03161  -0.03063  -0.02640
 Alpha virt. eigenvalues --   -0.02279  -0.01477  -0.01058  -0.00623  -0.00500

 Mulliken charges:
               1
     1  N   -1.407477
     2  C    0.910048
     3  C    1.169799
     4  C    0.875924
     5  C    1.351185
     6  C    0.749253
     7  C    0.765309
     8  N    0.135115
     9  C    0.762467
    10  C    0.420133
    11  C    1.278431
    12  O   -0.416539
    13  O   -0.435772
    14  O   -0.501211
    15  H   -0.512794
    16  H   -0.283620
    17  H   -0.362448
    18  H   -0.393174
    19  H   -0.527526
    20  H   -0.571949
    21  H   -0.826437
    22  H   -1.101028
    23  H   -0.666900
    24  H   -0.573316
    25  H   -0.906722
    26  C    1.015756
    27  H    0.507490
    28  H    0.189274
    29  H    0.146128
    30  H    0.078348
    31  H    0.239879
    32  H    0.223277
    33  H    0.196856
    34  O   -0.460391
    35  H    0.282122
    36  H    0.174756
    37  H   -0.162759
    38  H   -0.189499
    39  H   -0.171988
 Sum of Mulliken charges =   1.00000

 Dipole moment (field-independent basis, Debye):
    X=              1.7097    Y=             -1.6246    Z=              1.1919  Tot=              2.6425
 Quadrupole moment (field-independent basis, Debye-Ang):
   XX=            -63.8593   YY=            -56.7143   ZZ=            -84.2483
   XY=             -3.7248   XZ=             -0.0776   YZ=              4.2072

  Exact polarizability: 183.858  -9.510 171.365   5.194   3.456 131.221
 Approx polarizability: 187.451  -5.213 186.331   7.805   8.650 151.295

                      1                      2                      3
                      A                      A                      A
 Frequencies --     16.5660                35.2483                42.9199
 Red. masses --      4.5909                 5.4194                 5.0964
 Frc consts  --      0.0007                 0.0040                 0.0055
 IR Inten    --      0.4941                 2.4891                 2.0160

                      4                      5                      6
                      A                      A                      A
 Frequencies --     55.7327                61.6912                72.4813
 Red. masses --      3.8612                 4.5330                 4.9770
 Frc consts  --      0.0071                 0.0102                 0.0154
 IR Inten    --      3.3385                 0.6088                 0.5987

                      7                      8                      9
                      A                      A                      A
 Frequencies --     79.9987                92.2896               107.3024
 Red. masses --      4.3057                 2.6337                 4.2238
 Frc consts  --      0.0162                 0.0132                 0.0287
 IR Inten    --      0.3383                 0.2546                 1.0080

                     10                     11                     12
                      A                      A                      A
 Frequencies --    119.0016               164.2343               182.0045
 Red. masses --      4.1299                 1.9725                 3.8444
 Frc consts  --      0.0345                 0.0313                 0.0750
 IR Inten    --      1.8911                 0.4560                 7.2280

                     13                     14                     15
                      A                      A                      A
 Frequencies --    217.2109               221.4943               233.3137
 Red. masses --      3.0997                 3.3786                 1.3409
 Frc consts  --      0.0862                 0.0977                 0.0430
 IR Inten    --      4.2278                 1.6145                 7.8323

                     16                     17                     18
                      A                      A                      A
 Frequencies --    242.9802               252.4603               259.4826
 Red. masses --      1.3199                 1.4997                 1.8933
 Frc consts  --      0.0459                 0.0563                 0.0751
 IR Inten    --     82.6095                10.7056                54.8382

                     19                     20                     21
                      A                      A                      A
 Frequencies --    266.4321               273.7504               276.7158
 Red. masses --      2.9895                 1.3251                 2.7840
 Frc consts  --      0.1250                 0.0585                 0.1256
 IR Inten    --     17.9472               176.5954                22.1378

                     22                     23                     24
                      A                      A                      A
 Frequencies --    287.4104               323.4811               327.9825
 Red. masses --      1.1613                 4.2392                 4.8535
 Frc consts  --      0.0565                 0.2614                 0.3076
 IR Inten    --     41.9336                 0.9134                11.5608

                     25                     26                     27
                      A                      A                      A
 Frequencies --    400.7481               408.2489               415.1452
 Red. masses --      2.8694                 2.8993                 2.8388
 Frc consts  --      0.2715                 0.2847                 0.2883
 IR Inten    --      3.1557                17.8986                 4.0771

                     28                     29                     30
                      A                      A                      A
 Frequencies --    451.4889               497.2705               546.4613
 Red. masses --      1.0656                 1.1396                 1.3564
 Frc consts  --      0.1280                 0.1660                 0.2386
 IR Inten    --     84.7028                20.9498                47.1133

                     31                     32                     33
                      A                      A                      A
 Frequencies --    559.0450               586.3957               622.2607
 Red. masses --      2.2952                 2.5359                 1.2189
 Frc consts  --      0.4226                 0.5138                 0.2781
 IR Inten    --     14.7220                21.5994                63.7730

                     34                     35                     36
                      A                      A                      A
 Frequencies --    635.2324               652.3345               670.7212
 Red. masses --      4.2032                 3.1930                 4.9318
 Frc consts  --      0.9993                 0.8006                 1.3072
 IR Inten    --     14.1601                11.6424                 2.8148

                     37                     38                     39
                      A                      A                      A
 Frequencies --    707.2472               750.7238               776.1323
 Red. masses --      1.8665                 1.0639                 1.0658
 Frc consts  --      0.5501                 0.3533                 0.3783
 IR Inten    --     46.2386               116.5746               204.3692

                     40                     41                     42
                      A                      A                      A
 Frequencies --    781.7355               836.6101               844.5843
 Red. masses --      1.5237                 1.5166                 2.1824
 Frc consts  --      0.5486                 0.6254                 0.9172
 IR Inten    --      5.0591                40.4326                 2.9000

                     43                     44                     45
                      A                      A                      A
 Frequencies --    874.5131               917.7723               932.6658
 Red. masses --      1.0565                 1.1841                 2.1207
 Frc consts  --      0.4760                 0.5877                 1.0869
 IR Inten    --    110.8770                19.0617                28.3139

                     46                     47                     48
                      A                      A                      A
 Frequencies --    936.2398               948.8935               961.9400
 Red. masses --      2.1233                 1.7275                 1.7714
 Frc consts  --      1.0966                 0.9164                 0.9658
 IR Inten    --      8.4450                13.5622                 9.0966

                     49                     50                     51
                      A                      A                      A
 Frequencies --    982.3523              1005.4483              1031.1025
 Red. masses --      1.4383                 1.9850                 1.4001
 Frc consts  --      0.8178                 1.1823                 0.8770
 IR Inten    --      1.0056                 5.3349                 0.5643

                     52                     53                     54
                      A                      A                      A
 Frequencies --   1045.9803              1060.7072              1074.3799
 Red. masses --      4.1094                 2.3527                 1.8344
 Frc consts  --      2.6490                 1.5596                 1.2476
 IR Inten    --      2.3025                 2.1446                17.0385

                     55                     56                     57
                      A                      A                      A
 Frequencies --   1092.2398              1115.6374              1143.0592
 Red. masses --      2.1942                 2.2461                 1.2778
 Frc consts  --      1.5423                 1.6471                 0.9836
 IR Inten    --      3.2956                 8.7361                 5.0767

                     58                     59                     60
                      A                      A                      A
 Frequencies --   1150.9575              1195.3781              1210.4299
 Red. masses --      1.5372                 1.9518                 1.0996
 Frc consts  --      1.1997                 1.6432                 0.9493
 IR Inten    --     11.0012                12.4399                37.4586

                     61                     62                     63
                      A                      A                      A
 Frequencies --   1213.3317              1228.7642              1243.1840
 Red. masses --      1.3071                 1.4482                 1.7845
 Frc consts  --      1.1337                 1.2883                 1.6249
 IR Inten    --      8.6484                 6.4700                10.2736

                     64                     65                     66
                      A                      A                      A
 Frequencies --   1257.3847              1263.2380              1289.9152
 Red. masses --      1.7196                 1.7038                 1.6317
 Frc consts  --      1.6018                 1.6020                 1.5996
 IR Inten    --      8.5610                11.4361                 5.8739

                     67                     68                     69
                      A                      A                      A
 Frequencies --   1300.4196              1327.4680              1331.2524
 Red. masses --      1.3303                 1.8488                 1.4044
 Frc consts  --      1.3254                 1.9195                 1.4664
 IR Inten    --      6.9859                22.3117                 0.4899

                     70                     71                     72
                      A                      A                      A
 Frequencies --   1359.6100              1374.4684              1382.5085
 Red. masses --      1.3454                 2.0174                 1.5222
 Frc consts  --      1.4653                 2.2455                 1.7142
 IR Inten    --      3.7125                13.5428                 4.6788

                     73                     74                     75
                      A                      A                      A
 Frequencies --   1400.3864              1441.4417              1451.6901
 Red. masses --      1.7990                 1.5338                 1.2507
 Frc consts  --      2.0787                 1.8776                 1.5530
 IR Inten    --      1.2016                20.8279                10.6637

                     76                     77                     78
                      A                      A                      A
 Frequencies --   1484.2083              1487.1554              1491.4202
 Red. masses --      1.0469                 1.0622                 1.0863
 Frc consts  --      1.3587                 1.3841                 1.4237
 IR Inten    --     14.0200                 9.9294                 3.6241

                     79                     80                     81
                      A                      A                      A
 Frequencies --   1506.8136              1516.6405              1526.1935
 Red. masses --      1.0999                 1.7026                 1.2742
 Frc consts  --      1.4714                 2.3074                 1.7487
 IR Inten    --      7.4731                35.1105                 6.7523

                     82                     83                     84
                      A                      A                      A
 Frequencies --   1613.4141              1635.4444              1662.6219
 Red. masses --      1.2010                 1.8935                 1.0908
 Frc consts  --      1.8420                 2.9840                 1.7766
 IR Inten    --     90.9743                 9.9486                72.5155

                     85                     86                     87
                      A                      A                      A
 Frequencies --   1678.1083              1690.7544              1706.8992
 Red. masses --      1.0713                 1.1167                 4.0210
 Frc consts  --      1.7774                 1.8808                 6.9023
 IR Inten    --      4.5766                32.8527                12.9569

                     88                     89                     90
                      A                      A                      A
 Frequencies --   1721.3324              2909.6956              2972.8750
 Red. masses --      2.4661                 1.1011                 1.0837
 Frc consts  --      4.3051                 5.4926                 5.6430
 IR Inten    --     29.4396              1839.4730                48.8526

                     91                     92                     93
                      A                      A                      A
 Frequencies --   2996.5110              2997.6710              3093.0520
 Red. masses --      1.0554                 1.0652                 1.0623
 Frc consts  --      5.5832                 5.6396                 5.9881
 IR Inten    --     17.1644               123.0171                13.6528

                     94                     95                     96
                      A                      A                      A
 Frequencies --   3106.6466              3106.8978              3122.8149
 Red. masses --      1.0866                 1.0645                 1.0923
 Frc consts  --      6.1790                 6.0541                 6.2758
 IR Inten    --     17.4352                13.5845                16.8059

                     97                     98                     99
                      A                      A                      A
 Frequencies --   3145.2148              3149.6734              3165.2556
 Red. masses --      1.1056                 1.1037                 1.1066
 Frc consts  --      6.4441                 6.4513                 6.5322
 IR Inten    --      2.6000                14.3079                17.2527

                    100                    101                    102
                      A                      A                      A
 Frequencies --   3213.0439              3234.6289              3245.8391
 Red. masses --      1.0926                 1.0694                 1.0928
 Frc consts  --      6.6457                 6.5926                 6.7836
 IR Inten    --      0.1705              1082.9218                 5.3248

                    103                    104                    105
                      A                      A                      A
 Frequencies --   3260.7901              3265.9705              3442.2598
 Red. masses --      1.1005                 1.0944                 1.0636
 Frc consts  --      6.8939                 6.8779                 7.4252
 IR Inten    --      5.2686                98.5065               898.8289

                    106                    107                    108
                      A                      A                      A
 Frequencies --   3507.6719              3552.8105              3941.7445
 Red. masses --      1.0624                 1.0617                 1.0671
 Frc consts  --      7.7012                 7.8955                 9.7688
 IR Inten    --    768.0281               315.2007                69.4670

                    109                    110                    111
                      A                      A                      A
 Frequencies --   3944.1600              3945.6871              3950.6109
 Red. masses --      1.0681                 1.0682                 1.0684
 Frc consts  --      9.7899                 9.7982                 9.8242
 IR Inten    --    121.4473               138.4463               120.2292

 - Thermochemistry -
 -------------------
 Temperature   298.150 Kelvin.  Pressure   1.00000 Atm.
 Atom     1 has atomic number  7 and mass  14.00307

 Molecular mass:   235.16578 amu.
 Principal axes and moments of inertia in atomic units:
                           1         2         3
     Eigenvalues --  3595.215434577.576106630.16734
           X            0.99948   0.03213  -0.00107
           Y           -0.03214   0.99947  -0.00471
           Z            0.00091   0.00474   0.99999
 This molecule is an asymmetric top.
 Rotational symmetry number  1.
 Warning -- assumption of classical behavior for rotation
           may cause significant error
 Rotational temperatures (Kelvin)      0.02409     0.01892     0.01306
 Rotational constants (GHZ):           0.50198     0.39426     0.27220
 Zero-point vibrational energy     902533.8 (Joules/Mol)
                                  215.71075 (Kcal/Mol)
 Warning -- explicit consideration of  32 degrees of freedom as
           vibrations may cause significant error
 Vibrational temperatures:     23.83    50.71    61.75    80.19    88.76
          (Kelvin)            104.28   115.10   132.78   154.38   171.22
                              236.30   261.86   312.52   318.68   335.69
                              349.59   363.23   373.34   383.34   393.87
                              398.13   413.52   465.42   471.89   576.59
                              587.38   597.30   649.59   715.46   786.24
                              804.34   843.69   895.29   913.96   938.56
                              965.02  1017.57  1080.12  1116.68  1124.74
                             1203.70  1215.17  1258.23  1320.47  1341.90
                             1347.04  1365.25  1384.02  1413.39  1446.62
                             1483.53  1504.93  1526.12  1545.79  1571.49
                             1605.15  1644.61  1655.97  1719.88  1741.54
                             1745.71  1767.92  1788.66  1809.10  1817.52
                             1855.90  1871.01  1909.93  1915.38  1956.18
                             1977.55  1989.12  2014.84  2073.91  2088.66
                             2135.44  2139.68  2145.82  2167.97  2182.11
                             2195.85  2321.34  2353.04  2392.14  2414.42
                             2432.62  2455.85  2476.61  4186.40  4277.30
                             4311.31  4312.98  4450.21  4469.77  4470.13
                             4493.03  4525.26  4531.68  4554.10  4622.85
                             4653.91  4670.04  4691.55  4699.00  4952.64
                             5046.76  5111.70  5671.29  5674.77  5676.96
                             5684.05

 Zero-point correction=                           0.343757 (Hartree/Particle)
 Thermal correction to Energy=                    0.365202
 Thermal correction to Enthalpy=                  0.366147
 Thermal correction to Gibbs Free Energy=         0.292377
 Sum of electronic and zero-point Energies=           -804.691997
 Sum of electronic and thermal Energies=              -804.670552
 Sum of electronic and thermal Enthalpies=            -804.669608
 Sum of electronic and thermal Free Energies=         -804.743378

                     E (Thermal)             CV                S
                      KCal/Mol        Cal/Mol-Kelvin    Cal/Mol-Kelvin
 Total                  229.168             77.450            155.262
 Electronic               0.000              0.000              0.000
 Translational            0.889              2.981             42.267
 Rotational               0.889              2.981             33.056
 Vibrational            227.391             71.488             79.939
 Vibration     1          0.593              1.986              7.008
 Vibration     2          0.594              1.982              5.510
 Vibration     3          0.595              1.980              5.120
 Vibration     4          0.596              1.975              4.603
 Vibration     5          0.597              1.973              4.402
 Vibration     6          0.599              1.967              4.085
 Vibration     7          0.600              1.963              3.891
 Vibration     8          0.602              1.955              3.611
 Vibration     9          0.606              1.943              3.317
 Vibration    10          0.609              1.933              3.117
 Vibration    11          0.623              1.886              2.500
 Vibration    12          0.630              1.864              2.308
 Vibration    13          0.646              1.815              1.982
 Vibration    14          0.648              1.808              1.947
 Vibration    15          0.654              1.790              1.853
 Vibration    16          0.659              1.774              1.781
 Vibration    17          0.664              1.759              1.713
 Vibration    18          0.668              1.747              1.665
 Vibration    19          0.672              1.735              1.619
 Vibration    20          0.676              1.722              1.572
 Vibration    21          0.678              1.716              1.554
 Vibration    22          0.685              1.697              1.489
 Vibration    23          0.708              1.628              1.292
 Vibration    24          0.711              1.620              1.270
 Vibration    25          0.767              1.469              0.960
 Vibration    26          0.773              1.452              0.933
 Vibration    27          0.779              1.437              0.909
 Vibration    28          0.810              1.358              0.791
 Vibration    29          0.853              1.256              0.665
 Vibration    30          0.902              1.147              0.552
 Vibration    31          0.915              1.120              0.526
 Vibration    32          0.943              1.061              0.474

                           ! Non-Optimized Parameters !
 Normal termination of Gaussian 16 at Tue Nov  8 17:54:30 2022.
