 Gaussian 16, Revision A.03,
 Gaussian 16:  ES64L-G16RevA.03 25-Dec-2016

 -----------------------------
 # wB97XD/aug-cc-pVDZ opt freq
 -----------------------------

 ----
 blah
 ----
 Symbolic Z-matrix:
 Charge =  1 Multiplicity = 1

 SCF Done:  E(RwB97XD) =  -805.025513833     A.U. after   14 cycles
 SCF Done:  E(RwB97XD) =  -805.020040934     A.U. after   15 cycles
 SCF Done:  E(RwB97XD) =  -805.027085769     A.U. after   13 cycles
 SCF Done:  E(RwB97XD) =  -805.027311301     A.U. after   14 cycles
 SCF Done:  E(RwB97XD) =  -805.027887387     A.U. after   14 cycles
 SCF Done:  E(RwB97XD) =  -805.028190709     A.U. after   13 cycles
 SCF Done:  E(RwB97XD) =  -805.028303577     A.U. after   15 cycles
 SCF Done:  E(RwB97XD) =  -805.028615026     A.U. after   13 cycles
 SCF Done:  E(RwB97XD) =  -805.028188338     A.U. after   13 cycles
 SCF Done:  E(RwB97XD) =  -805.029107534     A.U. after   13 cycles
 SCF Done:  E(RwB97XD) =  -805.029438708     A.U. after    8 cycles
 SCF Done:  E(RwB97XD) =  -805.029438873     A.U. after    9 cycles
 SCF Done:  E(RwB97XD) =  -805.029439015     A.U. after    9 cycles
 SCF Done:  E(RwB97XD) =  -805.029439143     A.U. after    9 cycles
 SCF Done:  E(RwB97XD) =  -805.029439200     A.U. after    8 cycles
 SCF Done:  E(RwB97XD) =  -805.029439225     A.U. after    8 cycles
 SCF Done:  E(RwB97XD) =  -805.029439237     A.U. after    8 cycles
 SCF Done:  E(RwB97XD) =  -805.029439243     A.U. after    9 cycles
 SCF Done:  E(RwB97XD) =  -805.029439242     A.U. after    8 cycles
 Optimization completed.
    -- Stationary point found.
 Normal termination of Gaussian 16 at Mon Nov  7 21:42:05 2022.

 ----------------------------------------------------------------------
 #N Geom=AllCheck Guess=TCheck SCRF=Check GenChk RwB97XD/Aug-CC-pVDZ Fr
 eq
 ----------------------------------------------------------------------

 Structure from the checkpoint file:  "/gscratch/scrubbed/gds001/Gau-12397.chk"
 ----
 blah
 ----
 Charge =  1 Multiplicity = 1

                         Standard orientation:
 ---------------------------------------------------------------------
 Center     Atomic      Atomic             Coordinates (Angstroms)
 Number     Number       Type             X           Y           Z
 ---------------------------------------------------------------------
      1          6           0        0.325685    1.053757   -0.668379
      2          6           0        1.650565    1.157798   -0.242545
      3          6           0        2.076121    2.391796    0.249999
      4          6           0        1.171204    3.446980    0.300735
      5          6           0       -0.140517    3.219836   -0.112699
      6          7           0       -0.563052    2.043213   -0.585744
      7          6           0        2.557008   -0.043861   -0.262910
      8          6           0        2.665027   -0.833810   -1.576903
      9          6           0        2.886427   -2.310440   -1.165513
     10          6           0        2.895998   -2.306103    0.365712
     11          7           0        2.108848   -1.092915    0.730959
     12          8           0       -0.455963   -1.856213    0.399145
     13          1           0        3.905178   -2.176716    0.775937
     14          1           0        3.824386   -2.717454   -1.554362
     15          1           0        2.071214   -2.938363   -1.538924
     16          1           0        1.749001   -0.726684   -2.165869
     17          1           0        3.485960   -0.434539   -2.179939
     18          1           0        2.434214   -3.184161    0.827558
     19          1           0        3.559197    0.252734    0.076738
     20          1           0       -0.053512    0.116524   -1.078090
     21          1           0       -0.884908    4.014983   -0.058999
     22          1           0        1.468723    4.427049    0.668767
     23          1           0        3.103571    2.529571    0.590671
     24          6           0        2.223222   -0.688067    2.147163
     25          1           0        1.093817   -1.327979    0.560479
     26          1           0       -0.825054   -2.692096    0.691146
     27          1           0       -1.224973   -1.225557    0.308487
     28          8           0       -2.405058   -0.125157    0.142597
     29          1           0       -2.192171    0.758538   -0.188475
     30          1           0       -3.291194   -0.367976   -0.199022
     31          1           0        1.888066   -1.516272    2.778292
     32          1           0        1.585310    0.183557    2.319189
     33          1           0        3.267573   -0.444411    2.370773
     34          8           0       -4.820900   -0.933484   -0.760284
     35          1           0       -5.658061   -0.757735   -0.295013
     36          1           0       -5.047829   -0.991462   -1.690642
     37          8           0       -7.263155   -0.480055    0.474545
     38          1           0       -7.610241    0.359012    0.787379
     39          1           0       -7.772678   -1.160688    0.921450
 ---------------------------------------------------------------------

 SCF Done:  E(RwB97XD) =  -805.029439242     A.U. after    1 cycles

 The electronic state is 1-A.
 Alpha  occ. eigenvalues --  -19.38441 -19.38249 -19.35685 -19.35108 -14.68107
 Alpha  occ. eigenvalues --  -14.57127 -10.49174 -10.47994 -10.47537 -10.45531
 Alpha  occ. eigenvalues --  -10.45183 -10.44318 -10.44239 -10.43367 -10.43274
 Alpha  occ. eigenvalues --  -10.42590  -1.24979  -1.22664  -1.22599  -1.20269
 Alpha  occ. eigenvalues --   -1.18846  -1.17016  -1.05687  -1.03847  -1.00496
 Alpha  occ. eigenvalues --   -0.96046  -0.93819  -0.88346  -0.84932  -0.84503
 Alpha  occ. eigenvalues --   -0.82534  -0.77126  -0.74436  -0.74131  -0.73047
 Alpha  occ. eigenvalues --   -0.72518  -0.71358  -0.71139  -0.70878  -0.69264
 Alpha  occ. eigenvalues --   -0.68438  -0.65840  -0.64912  -0.64453  -0.62384
 Alpha  occ. eigenvalues --   -0.62003  -0.61541  -0.61099  -0.60643  -0.60286
 Alpha  occ. eigenvalues --   -0.58612  -0.58359  -0.57321  -0.56361  -0.55863
 Alpha  occ. eigenvalues --   -0.54628  -0.54020  -0.52367  -0.51220  -0.49115
 Alpha  occ. eigenvalues --   -0.48891  -0.48885  -0.46398  -0.45836
 Alpha virt. eigenvalues --   -0.08652  -0.07849  -0.06388  -0.05261  -0.04539
 Alpha virt. eigenvalues --   -0.04412  -0.03772  -0.02775  -0.02555  -0.02352
 Alpha virt. eigenvalues --   -0.02124  -0.01848  -0.01147  -0.00795  -0.00413

 Mulliken charges:
               1
     1  C    0.552181
     2  C    1.044012
     3  C    1.166080
     4  C    0.639125
     5  C    0.216680
     6  N   -0.300415
     7  C    0.926080
     8  C    1.109695
     9  C    0.719746
    10  C    1.282142
    11  N   -0.963719
    12  O   -0.406884
    13  H   -0.463481
    14  H   -0.257210
    15  H   -0.290395
    16  H   -0.297447
    17  H   -0.462043
    18  H   -0.480390
    19  H   -0.865576
    20  H   -1.156038
    21  H   -0.549697
    22  H   -0.589293
    23  H   -0.882006
    24  C    1.065666
    25  H    0.226702
    26  H    0.159745
    27  H    0.287273
    28  O   -0.437339
    29  H    0.171550
    30  H    0.282042
    31  H   -0.143278
    32  H   -0.117359
    33  H   -0.162303
    34  O   -0.340486
    35  H    0.213893
    36  H    0.123524
    37  O   -0.316630
    38  H    0.150245
    39  H    0.145606
 Sum of Mulliken charges =   1.00000

 Dipole moment (field-independent basis, Debye):
    X=              1.7911    Y=             -2.1343    Z=              2.4791  Tot=              3.7295
 Quadrupole moment (field-independent basis, Debye-Ang):
   XX=             -1.5739   YY=            -67.3575   ZZ=            -86.3636
   XY=             -3.8208   XZ=             -1.5602   YZ=              0.3506

  Exact polarizability: 171.310 -11.393 179.497   4.250   7.124 131.077
 Approx polarizability: 182.929  -5.294 187.577   7.804   9.341 148.949

                      1                      2                      3
                      A                      A                      A
 Frequencies --      7.0644                14.4753                21.1790
 Red. masses --      3.7140                 4.6146                 2.7681
 Frc consts  --      0.0001                 0.0006                 0.0007
 IR Inten    --      1.1427                 3.1060                 1.7080

                      4                      5                      6
                      A                      A                      A
 Frequencies --     32.4843                36.9353                44.7912
 Red. masses --      4.2374                 5.5812                 3.8073
 Frc consts  --      0.0026                 0.0045                 0.0045
 IR Inten    --      1.4374                 0.7983                 1.7632

                      7                      8                      9
                      A                      A                      A
 Frequencies --     58.5819                62.4143                75.2322
 Red. masses --      4.3702                 3.7921                 1.1655
 Frc consts  --      0.0088                 0.0087                 0.0039
 IR Inten    --      0.8101                 1.1811                 1.0896

                     10                     11                     12
                      A                      A                      A
 Frequencies --     97.5157               109.0329               119.1832
 Red. masses --      4.7420                 3.7838                 1.1959
 Frc consts  --      0.0266                 0.0265                 0.0100
 IR Inten    --      8.0446                 9.5641               215.3236

                     13                     14                     15
                      A                      A                      A
 Frequencies --    127.1268               150.5931               183.6492
 Red. masses --      4.8768                 1.9616                 1.2796
 Frc consts  --      0.0464                 0.0262                 0.0254
 IR Inten    --      8.8172                 6.7564                79.5589

                     16                     17                     18
                      A                      A                      A
 Frequencies --    198.2761               208.6855               220.7253
 Red. masses --      3.9842                 3.7309                 1.9561
 Frc consts  --      0.0923                 0.0957                 0.0562
 IR Inten    --     49.8815                 1.5537                34.5502

                     19                     20                     21
                      A                      A                      A
 Frequencies --    224.0147               228.0271               231.2141
 Red. masses --      1.4294                 1.1410                 1.1070
 Frc consts  --      0.0423                 0.0350                 0.0349
 IR Inten    --     23.7211                72.3908                19.8090

                     22                     23                     24
                      A                      A                      A
 Frequencies --    266.0595               287.4474               327.6790
 Red. masses --      3.2706                 5.3064                 4.2173
 Frc consts  --      0.1364                 0.2583                 0.2668
 IR Inten    --      2.1571                 3.1720                 1.1812

                     25                     26                     27
                      A                      A                      A
 Frequencies --    358.6805               388.4971               399.4957
 Red. masses --      4.4409                 3.0091                 1.0715
 Frc consts  --      0.3366                 0.2676                 0.1008
 IR Inten    --     17.5341                 1.9047                16.7135

                     28                     29                     30
                      A                      A                      A
 Frequencies --    420.3703               435.9755               525.7089
 Red. masses --      3.1652                 2.8880                 1.3779
 Frc consts  --      0.3295                 0.3234                 0.2244
 IR Inten    --      6.3250                13.4858                34.1270

                     31                     32                     33
                      A                      A                      A
 Frequencies --    542.4315               568.7346               586.2848
 Red. masses --      2.3065                 2.8828                 1.1045
 Frc consts  --      0.3998                 0.5494                 0.2237
 IR Inten    --      8.5348                 6.7600                77.4484

                     34                     35                     36
                      A                      A                      A
 Frequencies --    629.4364               646.0168               673.8356
 Red. masses --      3.3134                 4.3340                 4.8601
 Frc consts  --      0.7734                 1.0657                 1.3002
 IR Inten    --     15.0389                 2.3929                 2.5938

                     37                     38                     39
                      A                      A                      A
 Frequencies --    708.8482               728.9591               745.1673
 Red. masses --      1.0921                 1.2300                 1.5767
 Frc consts  --      0.3233                 0.3851                 0.5158
 IR Inten    --    235.0031                41.6394                 5.5982

                     40                     41                     42
                      A                      A                      A
 Frequencies --    784.9865               822.6695               826.5558
 Red. masses --      1.4722                 1.9240                 1.0414
 Frc consts  --      0.5345                 0.7672                 0.4192
 IR Inten    --      3.5648                16.8705                32.2848

                     43                     44                     45
                      A                      A                      A
 Frequencies --    834.5309               881.9815               915.8077
 Red. masses --      1.7851                 1.0538                 3.1967
 Frc consts  --      0.7325                 0.4830                 1.5796
 IR Inten    --     11.7645               116.2196                 5.4954

                     46                     47                     48
                      A                      A                      A
 Frequencies --    932.0268               945.2241               976.1184
 Red. masses --      2.2230                 2.0621                 1.3437
 Frc consts  --      1.1378                 1.0855                 0.7544
 IR Inten    --      7.3570                 1.8934                 1.4830

                     49                     50                     51
                      A                      A                      A
 Frequencies --    986.8545              1000.7480              1028.8443
 Red. masses --      1.7026                 1.6807                 1.4420
 Frc consts  --      0.9770                 0.9917                 0.8993
 IR Inten    --      3.9923                 7.7969                 0.6675

                     52                     53                     54
                      A                      A                      A
 Frequencies --   1048.6897              1049.9283              1061.5873
 Red. masses --      1.9433                 4.4146                 2.4911
 Frc consts  --      1.2591                 2.8672                 1.6541
 IR Inten    --     11.4782                10.6455                 4.0762

                     55                     56                     57
                      A                      A                      A
 Frequencies --   1084.7240              1100.7799              1128.5181
 Red. masses --      2.2330                 2.1995                 1.3891
 Frc consts  --      1.5480                 1.5702                 1.0423
 IR Inten    --      1.5912                 2.4308                 5.7005

                     58                     59                     60
                      A                      A                      A
 Frequencies --   1153.0921              1154.1245              1212.8534
 Red. masses --      1.8181                 1.8037                 1.7800
 Frc consts  --      1.4243                 1.4155                 1.5428
 IR Inten    --      5.6663                16.6469                 2.9533

                     61                     62                     63
                      A                      A                      A
 Frequencies --   1220.3420              1238.7876              1248.5148
 Red. masses --      1.4736                 1.6217                 1.2719
 Frc consts  --      1.2930                 1.4663                 1.1682
 IR Inten    --      4.5081                 3.6070                 7.0192

                     64                     65                     66
                      A                      A                      A
 Frequencies --   1266.8227              1280.0226              1301.9488
 Red. masses --      1.6233                 1.2748                 1.4806
 Frc consts  --      1.5349                 1.2307                 1.4787
 IR Inten    --      3.6266                 4.2823                 1.1621

                     67                     68                     69
                      A                      A                      A
 Frequencies --   1313.8994              1341.3128              1370.2719
 Red. masses --      3.3074                 1.3584                 1.4168
 Frc consts  --      3.3640                 1.4399                 1.5674
 IR Inten    --      0.4644                 1.1245                 6.0765

                     70                     71                     72
                      A                      A                      A
 Frequencies --   1372.6136              1379.8626              1405.6970
 Red. masses --      1.2750                 1.3912                 1.6002
 Frc consts  --      1.4153                 1.5607                 1.8629
 IR Inten    --      1.1841                 0.2325                 3.0139

                     73                     74                     75
                      A                      A                      A
 Frequencies --   1453.0825              1479.7053              1480.5944
 Red. masses --      1.1817                 1.0843                 2.0940
 Frc consts  --      1.4700                 1.3988                 2.7046
 IR Inten    --      2.7248                12.1561                24.7290

                     76                     77                     78
                      A                      A                      A
 Frequencies --   1484.1621              1489.3012              1503.1951
 Red. masses --      1.0582                 1.0852                 1.0945
 Frc consts  --      1.3734                 1.4181                 1.4572
 IR Inten    --      3.0459                 1.0385                17.9381

                     79                     80                     81
                      A                      A                      A
 Frequencies --   1516.8488              1532.5150              1555.0794
 Red. masses --      1.1675                 2.0775                 1.1546
 Frc consts  --      1.5827                 2.8747                 1.6451
 IR Inten    --     17.7443                 9.1142                28.3278

                     82                     83                     84
                      A                      A                      A
 Frequencies --   1559.6522              1627.9947              1642.0167
 Red. masses --      1.1519                 1.0876                 1.0943
 Frc consts  --      1.6510                 1.6983                 1.7384
 IR Inten    --     42.9588                45.9183               133.7845

                     85                     86                     87
                      A                      A                      A
 Frequencies --   1660.0136              1671.5129              1682.3655
 Red. masses --      4.7814                 1.1102                 5.9873
 Frc consts  --      7.7630                 1.8275                 9.9845
 IR Inten    --      6.6460                 4.9107                15.7877

                     88                     89                     90
                      A                      A                      A
 Frequencies --   1715.0775              2913.6823              3079.0877
 Red. masses --      1.0719                 1.0911                 1.0364
 Frc consts  --      1.8577                 5.4575                 5.7895
 IR Inten    --     59.3567              1376.3367                 5.0189

                     91                     92                     93
                      A                      A                      A
 Frequencies --   3084.1238              3096.6083              3108.6318
 Red. masses --      1.0827                 1.0628                 1.0621
 Frc consts  --      6.0678                 6.0044                 6.0472
 IR Inten    --      0.6912                 6.3404                 7.9729

                     94                     95                     96
                      A                      A                      A
 Frequencies --   3116.1821              3157.1774              3166.2696
 Red. masses --      1.0637                 1.1063                 1.1071
 Frc consts  --      6.0857                 6.4969                 6.5395
 IR Inten    --      7.4580                 1.1832                 0.8745

                     97                     98                     99
                      A                      A                      A
 Frequencies --   3176.6170              3179.7538              3182.1641
 Red. masses --      1.0978                 1.0763                 1.1067
 Frc consts  --      6.5266                 6.4117                 6.6029
 IR Inten    --    309.2700               803.0366                 1.2284

                    100                    101                    102
                      A                      A                      A
 Frequencies --   3191.7174              3196.6674              3197.0871
 Red. masses --      1.1069                 1.0918                 1.0912
 Frc consts  --      6.6438                 6.5735                 6.5712
 IR Inten    --      3.3838                 6.5066                 7.1888

                    103                    104                    105
                      A                      A                      A
 Frequencies --   3207.3774              3238.4408              3532.0986
 Red. masses --      1.0925                 1.0980                 1.0610
 Frc consts  --      6.6217                 6.7845                 7.7986
 IR Inten    --      3.1373                 1.7577              1193.7340

                    106                    107                    108
                      A                      A                      A
 Frequencies --   3666.6763              3783.9039              3882.0730
 Red. masses --      1.0585                 1.0716                 1.0451
 Frc consts  --      8.3848                 9.0396                 9.2796
 IR Inten    --    548.6091               458.5756                21.9786

                    109                    110                    111
                      A                      A                      A
 Frequencies --   3944.5162              3955.5119              3990.4557
 Red. masses --      1.0662                 1.0697                 1.0831
 Frc consts  --      9.7743                 9.8606                10.1612
 IR Inten    --     84.9234                95.4928               107.8398

 - Thermochemistry -
 -------------------
 Temperature   298.150 Kelvin.  Pressure   1.00000 Atm.
 Atom     1 has atomic number  6 and mass  12.00000

 Molecular mass:   235.16578 amu.
 Principal axes and moments of inertia in atomic units:
                           1         2         3
     Eigenvalues --  3313.154808500.50732**********
           X            0.99997  -0.00707   0.00102
           Y            0.00706   0.99995   0.00730
           Z           -0.00107  -0.00730   0.99997
 This molecule is an asymmetric top.
 Rotational symmetry number  1.
 Warning -- assumption of classical behavior for rotation
           may cause significant error
 Rotational temperatures (Kelvin)      0.02614     0.01019     0.00824
 Rotational constants (GHZ):           0.54472     0.21231     0.17163
 Zero-point vibrational energy     899959.7 (Joules/Mol)
                                  215.09553 (Kcal/Mol)
 Warning -- explicit consideration of  33 degrees of freedom as
           vibrations may cause significant error
 Vibrational temperatures:     10.16    20.83    30.47    46.74    53.14
          (Kelvin)             64.44    84.29    89.80   108.24   140.30
                              156.87   171.48   182.91   216.67   264.23
                              285.28   300.25   317.57   322.31   328.08
                              332.67   382.80   413.57   471.46   516.06
                              558.96   574.79   604.82   627.27   756.38
                              780.44   818.28   843.53   905.62   929.47
                              969.50  1019.87  1048.81  1072.13  1129.42
                             1183.64  1189.23  1200.70  1268.97  1317.64
                             1340.98  1359.97  1404.42  1419.86  1439.85
                             1480.28  1508.83  1510.61  1527.39  1560.68
                             1583.78  1623.69  1659.04  1660.53  1745.03
                             1755.80  1782.34  1796.33  1822.68  1841.67
                             1873.21  1890.41  1929.85  1971.52  1974.88
                             1985.31  2022.48  2090.66  2128.97  2130.25
                             2135.38  2142.77  2162.76  2182.41  2204.95
                             2237.41  2243.99  2342.32  2362.50  2388.39
                             2404.93  2420.55  2467.61  4192.14  4430.12
                             4437.37  4455.33  4472.63  4483.49  4542.47
                             4555.56  4570.44  4574.96  4578.42  4592.17
                             4599.29  4599.90  4614.70  4659.39  5081.90
                             5275.53  5444.19  5585.44  5675.28  5691.10
                             5741.38

 Zero-point correction=                           0.342777 (Hartree/Particle)
 Thermal correction to Energy=                    0.365952
 Thermal correction to Enthalpy=                  0.366896
 Thermal correction to Gibbs Free Energy=         0.284453
 Sum of electronic and zero-point Energies=           -804.686663
 Sum of electronic and thermal Energies=              -804.663487
 Sum of electronic and thermal Enthalpies=            -804.662543
 Sum of electronic and thermal Free Energies=         -804.744987

                     E (Thermal)             CV                S
                      KCal/Mol        Cal/Mol-Kelvin    Cal/Mol-Kelvin
 Total                  229.638             79.303            173.517
 Electronic               0.000              0.000              0.000
 Translational            0.889              2.981             42.267
 Rotational               0.889              2.981             34.048
 Vibrational            227.861             73.341             97.202
 Vibration     1          0.593              1.987              8.702
 Vibration     2          0.593              1.986              7.276
 Vibration     3          0.593              1.985              6.520
 Vibration     4          0.594              1.983              5.672
 Vibration     5          0.594              1.982              5.417
 Vibration     6          0.595              1.979              5.035
 Vibration     7          0.596              1.974              4.504
 Vibration     8          0.597              1.972              4.379
 Vibration     9          0.599              1.966              4.012
 Vibration    10          0.603              1.951              3.503
 Vibration    11          0.606              1.942              3.286
 Vibration    12          0.609              1.933              3.114
 Vibration    13          0.611              1.926              2.989
 Vibration    14          0.618              1.902              2.665
 Vibration    15          0.631              1.862              2.291
 Vibration    16          0.637              1.842              2.149
 Vibration    17          0.642              1.827              2.055
 Vibration    18          0.647              1.810              1.953
 Vibration    19          0.649              1.804              1.926
 Vibration    20          0.651              1.798              1.894
 Vibration    21          0.653              1.793              1.869
 Vibration    22          0.672              1.735              1.622
 Vibration    23          0.685              1.697              1.489
 Vibration    24          0.711              1.620              1.272
 Vibration    25          0.734              1.557              1.128
 Vibration    26          0.757              1.495              1.006
 Vibration    27          0.766              1.471              0.965
 Vibration    28          0.783              1.426              0.891
 Vibration    29          0.796              1.392              0.839
 Vibration    30          0.881              1.193              0.597
 Vibration    31          0.898              1.156              0.560
 Vibration    32          0.925              1.099              0.507
 Vibration    33          0.943              1.061              0.474

                           ! Non-Optimized Parameters !
 Normal termination of Gaussian 16 at Mon Nov  7 22:41:57 2022.
