 Gaussian 16, Revision A.03,
 Gaussian 16:  ES64L-G16RevA.03 25-Dec-2016

 -----------------------------
 # wB97XD/aug-cc-pVDZ opt freq
 -----------------------------

 ----
 blah
 ----
 Symbolic Z-matrix:
 Charge =  1 Multiplicity = 1

 SCF Done:  E(RwB97XD) =  -805.020697368     A.U. after   14 cycles
 SCF Done:  E(RwB97XD) =  -805.021278314     A.U. after   15 cycles
 SCF Done:  E(RwB97XD) =  -805.020372968     A.U. after   15 cycles
 SCF Done:  E(RwB97XD) =  -805.021877877     A.U. after   13 cycles
 SCF Done:  E(RwB97XD) =  -805.021793105     A.U. after   15 cycles
 SCF Done:  E(RwB97XD) =  -805.021927955     A.U. after   15 cycles
 SCF Done:  E(RwB97XD) =  -805.022323074     A.U. after   14 cycles
 SCF Done:  E(RwB97XD) =  -805.022350277     A.U. after   12 cycles
 SCF Done:  E(RwB97XD) =  -805.022461599     A.U. after   11 cycles
 SCF Done:  E(RwB97XD) =  -805.022494118     A.U. after   11 cycles
 SCF Done:  E(RwB97XD) =  -805.022694463     A.U. after    8 cycles
 SCF Done:  E(RwB97XD) =  -805.022694513     A.U. after    8 cycles
 SCF Done:  E(RwB97XD) =  -805.022694566     A.U. after    8 cycles
 SCF Done:  E(RwB97XD) =  -805.022694628     A.U. after    8 cycles
 SCF Done:  E(RwB97XD) =  -805.022694686     A.U. after    8 cycles
 SCF Done:  E(RwB97XD) =  -805.022694743     A.U. after    8 cycles
 SCF Done:  E(RwB97XD) =  -805.022694789     A.U. after    8 cycles
 SCF Done:  E(RwB97XD) =  -805.022694819     A.U. after    8 cycles
 SCF Done:  E(RwB97XD) =  -805.022694832     A.U. after    8 cycles
 Optimization completed.
    -- Stationary point found.
 Normal termination of Gaussian 16 at Fri Jan 27 15:04:47 2023.

 ----------------------------------------------------------------------
 #N Geom=AllCheck Guess=TCheck SCRF=Check GenChk RwB97XD/Aug-CC-pVDZ Fr
 eq
 ----------------------------------------------------------------------

 Structure from the checkpoint file:  "/gscratch/scrubbed/gds001/Gau-23883.chk"
 ----
 blah
 ----
 Charge =  1 Multiplicity = 1

                         Standard orientation:
 ---------------------------------------------------------------------
 Center     Atomic      Atomic             Coordinates (Angstroms)
 Number     Number       Type             X           Y           Z
 ---------------------------------------------------------------------
      1          6           0       -1.975868   -2.008021   -1.233727
      2          6           0       -1.778004   -0.855983   -0.467493
      3          6           0       -0.479535   -0.571894   -0.065351
      4          7           0        0.537482   -1.373408   -0.411035
      5          6           0        0.366651   -2.476808   -1.152913
      6          6           0       -0.901327   -2.823452   -1.584761
      7          6           0       -2.914091    0.079896   -0.118272
      8          7           0       -2.621086    0.857934    1.078161
      9          6           0       -3.356342    2.112923    0.951402
     10          6           0       -3.133728    2.490846   -0.507291
     11          6           0       -3.188623    1.132859   -1.232993
     12          8           0        2.969184   -0.851479    0.338275
     13          8           0        3.932468   -1.563458    2.836180
     14          1           0       -2.969079    2.852818    1.662310
     15          1           0       -3.883883    3.195082   -0.881735
     16          1           0       -2.145287    2.951748   -0.624355
     17          1           0       -4.177652    0.954968   -1.670010
     18          1           0       -2.456801    1.068365   -2.046244
     19          1           0       -4.436527    1.971528    1.159014
     20          1           0       -3.821511   -0.540793    0.023451
     21          1           0       -0.248050    0.297824    0.545204
     22          1           0        1.261354   -3.053718   -1.373781
     23          1           0       -1.043208   -3.721481   -2.181409
     24          1           0       -2.983304   -2.271531   -1.558045
     25          6           0       -2.867737    0.145001    2.317526
     26          1           0        1.526421   -1.130975   -0.083016
     27          1           0        3.359398   -1.060696    1.204178
     28          1           0        3.592873   -0.286061   -0.164809
     29          1           0        4.556339   -2.282851    2.965098
     30          1           0        4.079959   -0.957179    3.566767
     31          8           0        4.582030    0.671796   -1.181637
     32          1           0        5.305528    0.297399   -1.688318
     33          1           0        4.813402    1.605877   -1.029196
     34          1           0       -2.602253    0.783101    3.168694
     35          1           0       -2.247236   -0.760117    2.367251
     36          1           0       -3.928195   -0.157265    2.424043
     37          8           0        5.196530    3.344410   -0.770497
     38          1           0        5.913204    3.678005   -0.224482
     39          1           0        5.049662    4.011922   -1.445824
 ---------------------------------------------------------------------

 SCF Done:  E(RwB97XD) =  -805.022694832     A.U. after    1 cycles

 The electronic state is 1-A.
 Alpha  occ. eigenvalues --  -19.39736 -19.39412 -19.36975 -19.36398 -14.65449
 Alpha  occ. eigenvalues --  -14.54394 -10.49288 -10.48642 -10.46111 -10.45361
 Alpha  occ. eigenvalues --  -10.45348 -10.44237 -10.40839 -10.40837 -10.39763
 Alpha  occ. eigenvalues --  -10.38587  -1.24133  -1.23855  -1.23776  -1.21594
 Alpha  occ. eigenvalues --   -1.20172  -1.14803  -1.06481  -1.02760  -0.98426
 Alpha  occ. eigenvalues --   -0.93954  -0.88789  -0.87641  -0.86507  -0.80651
 Alpha  occ. eigenvalues --   -0.77750  -0.76818  -0.74433  -0.74131  -0.73218
 Alpha  occ. eigenvalues --   -0.72774  -0.72483  -0.71962  -0.69229  -0.67989
 Alpha  occ. eigenvalues --   -0.67328  -0.65893  -0.63004  -0.62923  -0.62664
 Alpha  occ. eigenvalues --   -0.61453  -0.60850  -0.59759  -0.59690  -0.57521
 Alpha  occ. eigenvalues --   -0.56518  -0.55424  -0.55081  -0.54404  -0.53559
 Alpha  occ. eigenvalues --   -0.52550  -0.52232  -0.51711  -0.51318  -0.50720
 Alpha  occ. eigenvalues --   -0.50390  -0.50252  -0.47358  -0.40420
 Alpha virt. eigenvalues --   -0.12338  -0.09026  -0.06044  -0.04842  -0.04625
 Alpha virt. eigenvalues --   -0.03779  -0.03203  -0.02803  -0.02594  -0.01990
 Alpha virt. eigenvalues --   -0.01806  -0.01231  -0.00863  -0.00666  -0.00424

 Mulliken charges:
               1
     1  C    1.115065
     2  C    0.766084
     3  C    0.735981
     4  N   -0.028128
     5  C    0.819200
     6  C    0.216009
     7  C    0.945920
     8  N   -0.427414
     9  C    1.215657
    10  C    0.598891
    11  C    0.962775
    12  O   -0.474816
    13  O   -0.332441
    14  H   -0.517811
    15  H   -0.277825
    16  H   -0.374487
    17  H   -0.362640
    18  H   -0.441110
    19  H   -0.435259
    20  H   -0.615764
    21  H   -1.001529
    22  H   -0.688210
    23  H   -0.560477
    24  H   -0.859772
    25  C    0.809459
    26  H    0.168860
    27  H    0.197411
    28  H    0.269453
    29  H    0.149587
    30  H    0.153214
    31  O   -0.386142
    32  H    0.132216
    33  H    0.234987
    34  H   -0.215981
    35  H   -0.295488
    36  H   -0.174087
    37  O   -0.315468
    38  H    0.147545
    39  H    0.146533
 Sum of Mulliken charges =   1.00000

 Dipole moment (field-independent basis, Debye):
    X=              6.1137    Y=             -0.9271    Z=             -0.2512  Tot=              6.1887
 Quadrupole moment (field-independent basis, Debye-Ang):
   XX=            -11.7000   YY=            -57.4916   ZZ=            -73.8981
   XY=             14.5968   XZ=              9.4570   YZ=             -0.0758

  Exact polarizability: 176.505 -14.863 169.959   0.248  15.804 147.319
 Approx polarizability: 185.619  -5.885 178.879   4.568  18.655 158.763

                      1                      2                      3
                      A                      A                      A
 Frequencies --      5.4375                10.7448                12.8443
 Red. masses --      4.6689                 4.5363                 2.7038
 Frc consts  --      0.0001                 0.0003                 0.0003
 IR Inten    --      0.3427                 0.7775                 0.2873

                      4                      5                      6
                      A                      A                      A
 Frequencies --     15.6949                20.9248                27.6274
 Red. masses --      4.9314                 3.5461                 4.7494
 Frc consts  --      0.0007                 0.0009                 0.0021
 IR Inten    --      2.4711                 0.2963                 0.5166

                      7                      8                      9
                      A                      A                      A
 Frequencies --     38.0500                42.3843                48.3078
 Red. masses --      4.7821                 5.1107                 7.0363
 Frc consts  --      0.0041                 0.0054                 0.0097
 IR Inten    --      1.0944                 0.9234                 5.0278

                     10                     11                     12
                      A                      A                      A
 Frequencies --     92.7493                95.0429               103.4155
 Red. masses --      3.4870                 1.0677                 1.0304
 Frc consts  --      0.0177                 0.0057                 0.0065
 IR Inten    --      1.7284                38.7965                19.7624

                     13                     14                     15
                      A                      A                      A
 Frequencies --    122.4746               142.1692               171.4756
 Red. masses --      3.9912                 5.2598                 3.5691
 Frc consts  --      0.0353                 0.0626                 0.0618
 IR Inten    --      1.3567                26.5811                 3.4435

                     16                     17                     18
                      A                      A                      A
 Frequencies --    189.8265               197.1621               201.7606
 Red. masses --      1.1226                 1.1603                 1.7043
 Frc consts  --      0.0238                 0.0266                 0.0409
 IR Inten    --     69.6904               292.2446                 1.0489

                     19                     20                     21
                      A                      A                      A
 Frequencies --    210.9264               217.6582               231.3062
 Red. masses --      1.8255                 2.0716                 1.0802
 Frc consts  --      0.0479                 0.0578                 0.0341
 IR Inten    --     57.0249                66.6390                15.7634

                     22                     23                     24
                      A                      A                      A
 Frequencies --    246.9470               248.5783               272.4058
 Red. masses --      1.1265                 1.0546                 3.0615
 Frc consts  --      0.0405                 0.0384                 0.1338
 IR Inten    --      1.2477                57.9357                 1.7462

                     25                     26                     27
                      A                      A                      A
 Frequencies --    285.6547               297.8241               345.3112
 Red. masses --      5.1875                 3.8581                 4.5278
 Frc consts  --      0.2494                 0.2016                 0.3181
 IR Inten    --     37.0199                 4.5876                 8.9866

                     28                     29                     30
                      A                      A                      A
 Frequencies --    362.7585               414.2041               419.0682
 Red. masses --      3.1021                 1.0512                 3.0778
 Frc consts  --      0.2405                 0.1063                 0.3185
 IR Inten    --     19.7971                16.0109                 1.5920

                     31                     32                     33
                      A                      A                      A
 Frequencies --    429.1079               537.5998               587.7050
 Red. masses --      3.1903                 3.9065                 2.5687
 Frc consts  --      0.3461                 0.6652                 0.5227
 IR Inten    --      0.9379                 2.4289                 0.5644

                     34                     35                     36
                      A                      A                      A
 Frequencies --    628.2030               644.8987               654.9091
 Red. masses --      4.3245                 4.0424                 3.4114
 Frc consts  --      1.0055                 0.9905                 0.8621
 IR Inten    --     24.8862                13.1432                 7.0759

                     37                     38                     39
                      A                      A                      A
 Frequencies --    689.7556               716.2942               721.8333
 Red. masses --      1.1222                 1.9803                 1.0548
 Frc consts  --      0.3146                 0.5986                 0.3238
 IR Inten    --     21.1308                40.5258               158.5280

                     40                     41                     42
                      A                      A                      A
 Frequencies --    739.1275               776.9581               837.3374
 Red. masses --      1.0446                 2.3580                 1.5033
 Frc consts  --      0.3362                 0.8387                 0.6210
 IR Inten    --     77.3769                 8.5779                35.2966

                     43                     44                     45
                      A                      A                      A
 Frequencies --    851.1896               867.6848               908.5030
 Red. masses --      1.0417                 2.0448                 1.7856
 Frc consts  --      0.4447                 0.9070                 0.8683
 IR Inten    --     70.5025                 5.4197                 7.9448

                     46                     47                     48
                      A                      A                      A
 Frequencies --    937.4805               965.1490               976.2919
 Red. masses --      3.2440                 1.9724                 1.9767
 Frc consts  --      1.6798                 1.0825                 1.1100
 IR Inten    --      9.1614                 4.1792                 6.2314

                     49                     50                     51
                      A                      A                      A
 Frequencies --    982.5080               996.5309              1031.9618
 Red. masses --      1.3182                 1.6847                 1.3862
 Frc consts  --      0.7497                 0.9857                 0.8697
 IR Inten    --      5.1961                 1.4262                 0.1466

                     52                     53                     54
                      A                      A                      A
 Frequencies --   1041.7452              1064.3258              1078.9869
 Red. masses --      3.5427                 2.1638                 1.7155
 Frc consts  --      2.2652                 1.4442                 1.1767
 IR Inten    --      6.1522                 5.4970                16.6006

                     55                     56                     57
                      A                      A                      A
 Frequencies --   1084.3650              1106.2585              1137.0007
 Red. masses --      2.1670                 1.9388                 1.2683
 Frc consts  --      1.5013                 1.3980                 0.9660
 IR Inten    --      2.7962                 9.6930                 6.1090

                     58                     59                     60
                      A                      A                      A
 Frequencies --   1140.7865              1184.0218              1204.7401
 Red. masses --      1.4958                 1.4299                 1.1663
 Frc consts  --      1.1469                 1.1811                 0.9973
 IR Inten    --      3.6364                 6.1878                10.7779

                     61                     62                     63
                      A                      A                      A
 Frequencies --   1216.5995              1233.8668              1254.0332
 Red. masses --      1.6790                 1.9087                 1.7028
 Frc consts  --      1.4642                 1.7121                 1.5777
 IR Inten    --      4.7979                16.6077                10.8404

                     64                     65                     66
                      A                      A                      A
 Frequencies --   1275.5820              1283.7462              1298.8405
 Red. masses --      1.5180                 2.2013                 1.4816
 Frc consts  --      1.4553                 2.1374                 1.4726
 IR Inten    --      6.1034                31.5730                11.5404

                     67                     68                     69
                      A                      A                      A
 Frequencies --   1305.3292              1306.2787              1337.9485
 Red. masses --      1.0895                 1.3047                 1.4602
 Frc consts  --      1.0937                 1.3117                 1.5401
 IR Inten    --     28.6526                 2.8417                 7.3878

                     70                     71                     72
                      A                      A                      A
 Frequencies --   1347.2492              1361.2166              1377.9840
 Red. masses --      1.5166                 2.8936                 1.6928
 Frc consts  --      1.6219                 3.1590                 1.8938
 IR Inten    --      1.8880                17.3930                16.9350

                     73                     74                     75
                      A                      A                      A
 Frequencies --   1392.2993              1433.8374              1453.3460
 Red. masses --      1.7167                 1.7508                 1.2261
 Frc consts  --      1.9607                 2.1208                 1.5258
 IR Inten    --     12.7635                40.4167                 6.8674

                     76                     77                     78
                      A                      A                      A
 Frequencies --   1477.7727              1483.9778              1490.5139
 Red. masses --      1.0467                 1.0815                 1.0722
 Frc consts  --      1.3467                 1.4032                 1.4035
 IR Inten    --     11.5713                 6.5319                 8.4655

                     79                     80                     81
                      A                      A                      A
 Frequencies --   1501.4819              1511.8380              1519.9645
 Red. masses --      1.0910                 2.1482                 1.1652
 Frc consts  --      1.4491                 2.8929                 1.5861
 IR Inten    --      8.2486                29.9973                 0.9228

                     82                     83                     84
                      A                      A                      A
 Frequencies --   1618.2891              1626.6729              1630.4166
 Red. masses --      1.4178                 1.3840                 1.1130
 Frc consts  --      2.1877                 2.1577                 1.7432
 IR Inten    --     57.3963                89.1773                76.4754

                     85                     86                     87
                      A                      A                      A
 Frequencies --   1646.8449              1670.9849              1696.3913
 Red. masses --      1.1139                 1.1367                 4.3273
 Frc consts  --      1.7800                 1.8701                 7.3369
 IR Inten    --     12.7215                18.3356                 7.6124

                     88                     89                     90
                      A                      A                      A
 Frequencies --   1718.8985              2679.0589              2954.4122
 Red. masses --      2.6728                 1.1145                 1.0814
 Frc consts  --      4.6528                 4.7128                 5.5612
 IR Inten    --      8.2490              3462.1859                25.1984

                     91                     92                     93
                      A                      A                      A
 Frequencies --   2960.4095              2968.1710              3088.0691
 Red. masses --      1.0730                 1.0557                 1.0812
 Frc consts  --      5.5403                 5.4798                 6.0748
 IR Inten    --     55.9462                84.8690                30.6821

                     94                     95                     96
                      A                      A                      A
 Frequencies --   3088.9778              3095.2192              3120.2870
 Red. masses --      1.0619                 1.0651                 1.0908
 Frc consts  --      5.9696                 6.0123                 6.2573
 IR Inten    --     15.1384                21.4839                26.1789

                     97                     98                     99
                      A                      A                      A
 Frequencies --   3139.3246              3142.3614              3159.1706
 Red. masses --      1.1052                 1.1020                 1.1055
 Frc consts  --      6.4176                 6.4114                 6.5008
 IR Inten    --      6.3170                19.8445                25.7186

                    100                    101                    102
                      A                      A                      A
 Frequencies --   3208.6967              3243.8037              3247.8123
 Red. masses --      1.0923                 1.0929                 1.0949
 Frc consts  --      6.6257                 6.7753                 6.8047
 IR Inten    --      0.6118                 0.9361                 6.5386

                    103                    104                    105
                      A                      A                      A
 Frequencies --   3260.0423              3511.2278              3649.0464
 Red. masses --      1.1000                 1.0603                 1.0583
 Frc consts  --      6.8882                 7.7021                 8.3029
 IR Inten    --      1.1620              1147.2510               564.6215

                    106                    107                    108
                      A                      A                      A
 Frequencies --   3680.6743              3877.8102              3878.8280
 Red. masses --      1.0742                 1.0453                 1.0452
 Frc consts  --      8.5745                 9.2610                 9.2651
 IR Inten    --    787.2522                22.5134                24.3175

                    109                    110                    111
                      A                      A                      A
 Frequencies --   3954.9102              3983.5922              3985.4855
 Red. masses --      1.0696                 1.0828                 1.0829
 Frc consts  --      9.8573                10.1238                10.1343
 IR Inten    --     96.0056               105.4788               108.4845

 - Thermochemistry -
 -------------------
 Temperature   298.150 Kelvin.  Pressure   1.00000 Atm.
 Atom     1 has atomic number  6 and mass  12.00000

 Molecular mass:   235.16578 amu.
 Principal axes and moments of inertia in atomic units:
                           1         2         3
     Eigenvalues --  4176.600889468.67833**********
           X            1.00000  -0.00179  -0.00135
           Y            0.00177   0.99988  -0.01519
           Z            0.00138   0.01519   0.99988
 This molecule is an asymmetric top.
 Rotational symmetry number  1.
 Warning -- assumption of classical behavior for rotation
           may cause significant error
 Rotational temperatures (Kelvin)      0.02074     0.00915     0.00812
 Rotational constants (GHZ):           0.43211     0.19060     0.16924
 Zero-point vibrational energy     891000.1 (Joules/Mol)
                                  212.95414 (Kcal/Mol)
 Warning -- explicit consideration of  33 degrees of freedom as
           vibrations may cause significant error
 Vibrational temperatures:      7.82    15.46    18.48    22.58    30.11
          (Kelvin)             39.75    54.75    60.98    69.50   133.45
                              136.75   148.79   176.21   204.55   246.72
                              273.12   283.67   290.29   303.48   313.16
                              332.80   355.30   357.65   391.93   410.99
                              428.50   496.83   521.93   595.95   602.95
                              617.39   773.49   845.58   903.84   927.87
                              942.27   992.40  1030.59  1038.56  1063.44
                             1117.87  1204.74  1224.67  1248.40  1307.13
                             1348.83  1388.63  1404.67  1413.61  1433.79
                             1484.76  1498.84  1531.33  1552.42  1560.16
                             1591.66  1635.89  1641.34  1703.54  1733.35
                             1750.42  1775.26  1804.27  1835.28  1847.02
                             1868.74  1878.08  1879.44  1925.01  1938.39
                             1958.49  1982.61  2003.21  2062.97  2091.04
                             2126.19  2135.11  2144.52  2160.30  2175.20
                             2186.89  2328.36  2340.42  2345.81  2369.44
                             2404.17  2440.73  2473.11  3854.57  4250.74
                             4259.37  4270.54  4443.04  4444.35  4453.33
                             4489.40  4516.79  4521.16  4545.34  4616.60
                             4667.11  4672.88  4690.47  5051.87  5250.16
                             5295.67  5579.30  5580.77  5690.23  5731.50
                             5734.22

 Zero-point correction=                           0.339364 (Hartree/Particle)
 Thermal correction to Energy=                    0.363743
 Thermal correction to Enthalpy=                  0.364687
 Thermal correction to Gibbs Free Energy=         0.276162
 Sum of electronic and zero-point Energies=           -804.683331
 Sum of electronic and thermal Energies=              -804.658952
 Sum of electronic and thermal Enthalpies=            -804.658007
 Sum of electronic and thermal Free Energies=         -804.746532

                     E (Thermal)             CV                S
                      KCal/Mol        Cal/Mol-Kelvin    Cal/Mol-Kelvin
 Total                  228.252             81.197            186.317
 Electronic               0.000              0.000              0.000
 Translational            0.889              2.981             42.267
 Rotational               0.889              2.981             34.399
 Vibrational            226.475             75.235            109.650
 Vibration     1          0.593              1.987              9.222
 Vibration     2          0.593              1.987              7.868
 Vibration     3          0.593              1.987              7.514
 Vibration     4          0.593              1.986              7.116
 Vibration     5          0.593              1.986              6.544
 Vibration     6          0.593              1.984              5.993
 Vibration     7          0.594              1.982              5.358
 Vibration     8          0.595              1.980              5.144
 Vibration     9          0.595              1.978              4.885
 Vibration    10          0.602              1.954              3.601
 Vibration    11          0.603              1.953              3.554
 Vibration    12          0.605              1.946              3.389
 Vibration    13          0.610              1.930              3.061
 Vibration    14          0.616              1.911              2.774
 Vibration    15          0.626              1.878              2.419
 Vibration    16          0.633              1.854              2.230
 Vibration    17          0.637              1.844              2.159
 Vibration    18          0.639              1.837              2.117
 Vibration    19          0.643              1.824              2.036
 Vibration    20          0.646              1.814              1.978
 Vibration    21          0.653              1.793              1.869
 Vibration    22          0.661              1.768              1.752
 Vibration    23          0.662              1.765              1.741
 Vibration    24          0.675              1.724              1.581
 Vibration    25          0.683              1.700              1.500
 Vibration    26          0.691              1.678              1.429
 Vibration    27          0.724              1.585              1.188
 Vibration    28          0.737              1.549              1.110
 Vibration    29          0.778              1.439              0.912
 Vibration    30          0.782              1.429              0.895
 Vibration    31          0.790              1.407              0.862
 Vibration    32          0.893              1.167              0.570
 Vibration    33          0.945              1.058              0.471

                           ! Non-Optimized Parameters !
 Normal termination of Gaussian 16 at Fri Jan 27 15:57:15 2023.
