 Gaussian 16, Revision A.03,
 Gaussian 16:  ES64L-G16RevA.03 25-Dec-2016

 -----------------------------
 # wB97XD/aug-cc-pVDZ opt freq
 -----------------------------

 ----
 blah
 ----
 Symbolic Z-matrix:
 Charge =  1 Multiplicity = 1

 SCF Done:  E(RwB97XD) =  -805.020298675     A.U. after   14 cycles
 SCF Done:  E(RwB97XD) =  -805.021019009     A.U. after   15 cycles
 SCF Done:  E(RwB97XD) =  -805.020816631     A.U. after   15 cycles
 SCF Done:  E(RwB97XD) =  -805.021341752     A.U. after   13 cycles
 SCF Done:  E(RwB97XD) =  -805.021693762     A.U. after   13 cycles
 SCF Done:  E(RwB97XD) =  -805.021479309     A.U. after   13 cycles
 SCF Done:  E(RwB97XD) =  -805.021840751     A.U. after   13 cycles
 SCF Done:  E(RwB97XD) =  -805.021959546     A.U. after   13 cycles
 SCF Done:  E(RwB97XD) =  -805.021983650     A.U. after   13 cycles
 SCF Done:  E(RwB97XD) =  -805.022052855     A.U. after   12 cycles
 SCF Done:  E(RwB97XD) =  -805.022230608     A.U. after    8 cycles
 SCF Done:  E(RwB97XD) =  -805.022230672     A.U. after    8 cycles
 SCF Done:  E(RwB97XD) =  -805.022230709     A.U. after    7 cycles
 SCF Done:  E(RwB97XD) =  -805.022230701     A.U. after    8 cycles
 SCF Done:  E(RwB97XD) =  -805.022230673     A.U. after    9 cycles
 SCF Done:  E(RwB97XD) =  -805.022230632     A.U. after    9 cycles
 SCF Done:  E(RwB97XD) =  -805.022230582     A.U. after    9 cycles
 SCF Done:  E(RwB97XD) =  -805.022230553     A.U. after    9 cycles
 SCF Done:  E(RwB97XD) =  -805.022230545     A.U. after    7 cycles
 Optimization completed.
    -- Stationary point found.
 Normal termination of Gaussian 16 at Fri Jan 27 20:16:04 2023.

 ----------------------------------------------------------------------
 #N Geom=AllCheck Guess=TCheck SCRF=Check GenChk RwB97XD/Aug-CC-pVDZ Fr
 eq
 ----------------------------------------------------------------------

 Structure from the checkpoint file:  "/gscratch/scrubbed/gds001/Gau-1904.chk"
 ----
 blah
 ----
 Charge =  1 Multiplicity = 1

                         Standard orientation:
 ---------------------------------------------------------------------
 Center     Atomic      Atomic             Coordinates (Angstroms)
 Number     Number       Type             X           Y           Z
 ---------------------------------------------------------------------
      1          6           0       -2.840373    1.913732    0.242005
      2          6           0       -2.465384    0.580243   -0.452827
      3          7           0       -3.725378   -0.139918   -0.548945
      4          6           0       -4.722477    0.874257   -0.880739
      5          6           0       -4.367460    2.045182    0.035739
      6          6           0       -1.430999   -0.210389    0.311775
      7          6           0       -0.099055   -0.215030   -0.069287
      8          7           0        0.820908   -0.888392    0.640121
      9          6           0        0.506962   -1.590707    1.735733
     10          6           0       -0.807833   -1.639139    2.169703
     11          6           0       -1.777822   -0.944932    1.452590
     12          6           0       -3.698479   -1.257022   -1.474242
     13          1           0       -2.056008    0.798462   -1.462388
     14          1           0       -2.585955    1.879789    1.308056
     15          1           0       -2.279366    2.745230   -0.199291
     16          1           0       -4.891170    1.950625    0.993504
     17          1           0       -4.647058    3.008066   -0.404247
     18          1           0       -4.640535    1.173433   -1.945826
     19          1           0       -5.733083    0.481153   -0.718747
     20          1           0       -2.824874   -0.969968    1.754353
     21          1           0        1.327578   -2.101174    2.234054
     22          1           0        1.839756   -0.866325    0.312089
     23          1           0        0.269304    0.312907   -0.946879
     24          1           0       -2.962047   -2.004540   -1.150664
     25          1           0       -3.445301   -0.940239   -2.506067
     26          1           0       -4.681689   -1.741184   -1.492933
     27          1           0       -1.062523   -2.214971    3.056421
     28          8           0        3.287881   -0.817741   -0.160734
     29          1           0        3.710987   -1.438283   -0.778776
     30          1           0        3.960449   -0.184062    0.168586
     31          8           0        5.017559    0.970386    0.853147
     32          1           0        5.345304    1.764134    0.392604
     33          1           0        5.682529    0.748428    1.507986
     34          8           0        4.328612   -2.667253   -1.938256
     35          1           0        4.897920   -3.399112   -1.686177
     36          1           0        4.551860   -2.466360   -2.850952
     37          8           0        5.904782    3.251174   -0.445206
     38          1           0        6.649898    3.302581   -1.049486
     39          1           0        5.812163    4.129878   -0.067748
 ---------------------------------------------------------------------

 SCF Done:  E(RwB97XD) =  -805.022230545     A.U. after    2 cycles

 The electronic state is 1-A.
 Alpha  occ. eigenvalues --  -19.39855 -19.39441 -19.37083 -19.36594 -14.65614
 Alpha  occ. eigenvalues --  -14.54243 -10.49524 -10.49176 -10.45833 -10.45449
 Alpha  occ. eigenvalues --  -10.45343 -10.44104 -10.40581 -10.40558 -10.39582
 Alpha  occ. eigenvalues --  -10.38277  -1.24284  -1.24044  -1.23815  -1.21730
 Alpha  occ. eigenvalues --   -1.20333  -1.14732  -1.06357  -1.03070  -0.98102
 Alpha  occ. eigenvalues --   -0.93829  -0.88806  -0.87511  -0.86472  -0.81114
 Alpha  occ. eigenvalues --   -0.77466  -0.76117  -0.74551  -0.74170  -0.73420
 Alpha  occ. eigenvalues --   -0.73388  -0.72615  -0.71952  -0.69424  -0.67428
 Alpha  occ. eigenvalues --   -0.67380  -0.66189  -0.63390  -0.63027  -0.62189
 Alpha  occ. eigenvalues --   -0.61421  -0.60918  -0.59948  -0.58821  -0.57623
 Alpha  occ. eigenvalues --   -0.56078  -0.55875  -0.54994  -0.54066  -0.53326
 Alpha  occ. eigenvalues --   -0.52657  -0.52273  -0.51480  -0.51375  -0.50923
 Alpha  occ. eigenvalues --   -0.50483  -0.49829  -0.47594  -0.40310
 Alpha virt. eigenvalues --   -0.12467  -0.09108  -0.06148  -0.04799  -0.04533
 Alpha virt. eigenvalues --   -0.04043  -0.03115  -0.02860  -0.02366  -0.02042
 Alpha virt. eigenvalues --   -0.01821  -0.01130  -0.00830  -0.00759  -0.00446

 Mulliken charges:
               1
     1  C    0.945872
     2  C    0.782182
     3  N   -0.435838
     4  C    1.197009
     5  C    0.675470
     6  C    1.278015
     7  C    0.624079
     8  N   -0.061874
     9  C    0.798909
    10  C    0.147759
    11  C    1.139192
    12  C    0.843125
    13  H   -0.807888
    14  H   -0.440832
    15  H   -0.384255
    16  H   -0.330030
    17  H   -0.282148
    18  H   -0.379890
    19  H   -0.534179
    20  H   -0.969197
    21  H   -0.669639
    22  H    0.148228
    23  H   -0.866218
    24  H   -0.340091
    25  H   -0.165494
    26  H   -0.239779
    27  H   -0.587267
    28  O   -0.484533
    29  H    0.198661
    30  H    0.269686
    31  O   -0.382899
    32  H    0.231952
    33  H    0.133712
    34  O   -0.332356
    35  H    0.151175
    36  H    0.152121
    37  O   -0.316584
    38  H    0.147568
    39  H    0.146276
 Sum of Mulliken charges =   1.00000

 Dipole moment (field-independent basis, Debye):
    X=              8.1869    Y=             -0.4600    Z=             -0.1164  Tot=              8.2007
 Quadrupole moment (field-independent basis, Debye-Ang):
   XX=              2.2183   YY=            -61.6756   ZZ=            -76.8223
   XY=              7.3905   XZ=            -10.5617   YZ=             -2.3131

  Exact polarizability: 192.016 -14.018 152.640   6.459 -12.825 151.251
 Approx polarizability: 188.479  -7.764 162.430  -2.372 -18.965 173.233

                      1                      2                      3
                      A                      A                      A
 Frequencies --      5.1706                10.1252                15.7206
 Red. masses --      4.0591                 4.8851                 4.7975
 Frc consts  --      0.0001                 0.0003                 0.0007
 IR Inten    --      0.0833                 0.3590                 1.8810

                      4                      5                      6
                      A                      A                      A
 Frequencies --     17.2326                26.7037                33.3239
 Red. masses --      4.0780                 4.0163                 3.2806
 Frc consts  --      0.0007                 0.0017                 0.0021
 IR Inten    --      0.7567                 0.6749                 2.2635

                      7                      8                      9
                      A                      A                      A
 Frequencies --     37.9730                43.2071                44.7575
 Red. masses --      3.9755                 5.8598                 4.8929
 Frc consts  --      0.0034                 0.0064                 0.0058
 IR Inten    --      1.0281                 2.6056                 1.8561

                     10                     11                     12
                      A                      A                      A
 Frequencies --     90.7998                98.5930               105.7278
 Red. masses --      1.0577                 3.1413                 1.0651
 Frc consts  --      0.0051                 0.0180                 0.0070
 IR Inten    --     41.7890                 0.8843                16.5955

                     13                     14                     15
                      A                      A                      A
 Frequencies --    113.2184               141.8726               159.4090
 Red. masses --      4.2597                 5.5594                 1.9798
 Frc consts  --      0.0322                 0.0659                 0.0296
 IR Inten    --      1.7139                29.0746                 1.0437

                     16                     17                     18
                      A                      A                      A
 Frequencies --    183.4288               188.4452               191.4537
 Red. masses --      1.1319                 2.8558                 1.1589
 Frc consts  --      0.0224                 0.0598                 0.0250
 IR Inten    --    146.7554                 5.5495               200.8235

                     19                     20                     21
                      A                      A                      A
 Frequencies --    210.7011               217.4862               231.1957
 Red. masses --      2.0453                 1.8386                 1.0780
 Frc consts  --      0.0535                 0.0512                 0.0339
 IR Inten    --     48.3438                90.5026                14.1615

                     22                     23                     24
                      A                      A                      A
 Frequencies --    243.2992               246.7941               263.4289
 Red. masses --      1.1341                 1.0594                 2.8543
 Frc consts  --      0.0396                 0.0380                 0.1167
 IR Inten    --      0.9025                63.7682                 2.3506

                     25                     26                     27
                      A                      A                      A
 Frequencies --    281.0449               304.2199               351.1898
 Red. masses --      5.1221                 4.4495                 4.8409
 Frc consts  --      0.2384                 0.2426                 0.3518
 IR Inten    --     28.2487                13.3114                13.9529

                     28                     29                     30
                      A                      A                      A
 Frequencies --    360.8477               414.0633               416.4070
 Red. masses --      2.9568                 1.1026                 2.6487
 Frc consts  --      0.2268                 0.1114                 0.2706
 IR Inten    --     11.7785                13.9367                 1.7973

                     31                     32                     33
                      A                      A                      A
 Frequencies --    419.7844               548.2205               591.8238
 Red. masses --      3.1605                 3.9021                 3.0485
 Frc consts  --      0.3281                 0.6910                 0.6291
 IR Inten    --      2.9342                 1.3087                 0.2324

                     34                     35                     36
                      A                      A                      A
 Frequencies --    636.8881               646.5175               668.6605
 Red. masses --      5.3278                 3.1451                 4.3635
 Frc consts  --      1.2733                 0.7745                 1.1495
 IR Inten    --     52.5377                 2.8618                 3.4993

                     37                     38                     39
                      A                      A                      A
 Frequencies --    691.1619               714.7159               723.2595
 Red. masses --      1.1123                 1.9388                 1.0539
 Frc consts  --      0.3131                 0.5835                 0.3248
 IR Inten    --     20.7637                44.8954               140.0922

                     40                     41                     42
                      A                      A                      A
 Frequencies --    743.5363               774.8088               839.8239
 Red. masses --      1.0438                 1.7501                 1.6415
 Frc consts  --      0.3400                 0.6190                 0.6821
 IR Inten    --     87.1361                 5.4485                29.5740

                     43                     44                     45
                      A                      A                      A
 Frequencies --    853.2651               853.6727               923.6235
 Red. masses --      1.0562                 1.9043                 1.6905
 Frc consts  --      0.4531                 0.8177                 0.8497
 IR Inten    --     70.3499                16.7340                10.8435

                     46                     47                     48
                      A                      A                      A
 Frequencies --    935.9203               950.3740               968.8684
 Red. masses --      3.4177                 1.6094                 2.0854
 Frc consts  --      1.7639                 0.8565                 1.1534
 IR Inten    --      5.6374                 6.7056                 2.8576

                     49                     50                     51
                      A                      A                      A
 Frequencies --    986.6821              1002.1842              1041.7239
 Red. masses --      1.4663                 1.8385                 3.8402
 Frc consts  --      0.8410                 1.0879                 2.4553
 IR Inten    --      2.3990                 1.0373                 6.7904

                     52                     53                     54
                      A                      A                      A
 Frequencies --   1044.4085              1061.1585              1080.5492
 Red. masses --      1.3959                 2.3126                 1.6813
 Frc consts  --      0.8971                 1.5343                 1.1566
 IR Inten    --      1.0533                 2.0603                15.8097

                     55                     56                     57
                      A                      A                      A
 Frequencies --   1086.8535              1112.6704              1137.8104
 Red. masses --      2.1580                 2.2022                 1.2882
 Frc consts  --      1.5019                 1.6063                 0.9826
 IR Inten    --      5.2599                10.8373                 5.7954

                     58                     59                     60
                      A                      A                      A
 Frequencies --   1140.8513              1198.7467              1207.5580
 Red. masses --      1.4624                 1.5012                 1.2802
 Frc consts  --      1.1215                 1.2710                 1.0998
 IR Inten    --      5.1804                10.9533                 5.1723

                     61                     62                     63
                      A                      A                      A
 Frequencies --   1220.3279              1243.8644              1257.0154
 Red. masses --      1.5641                 1.6083                 1.6307
 Frc consts  --      1.3724                 1.4661                 1.5181
 IR Inten    --      8.5556                 7.8345                12.4045

                     64                     65                     66
                      A                      A                      A
 Frequencies --   1271.2298              1291.9678              1304.4478
 Red. masses --      1.8803                 1.7268                 1.4775
 Frc consts  --      1.7903                 1.6982                 1.4813
 IR Inten    --     20.2368                 6.6683                18.6209

                     67                     68                     69
                      A                      A                      A
 Frequencies --   1305.7990              1322.6570              1328.9181
 Red. masses --      1.0986                 1.5756                 1.4125
 Frc consts  --      1.1037                 1.6240                 1.4697
 IR Inten    --     27.5602                14.9145                 5.2252

                     70                     71                     72
                      A                      A                      A
 Frequencies --   1348.2936              1358.2120              1379.0458
 Red. masses --      1.4886                 2.0489                 1.8056
 Frc consts  --      1.5944                 2.2270                 2.0231
 IR Inten    --      4.3964                 3.5704                25.9204

                     73                     74                     75
                      A                      A                      A
 Frequencies --   1390.2106              1442.3072              1454.0943
 Red. masses --      1.6325                 1.5247                 1.4515
 Frc consts  --      1.8589                 1.8688                 1.8082
 IR Inten    --     12.7956                11.9551                 6.1959

                     76                     77                     78
                      A                      A                      A
 Frequencies --   1478.1547              1483.2565              1488.4472
 Red. masses --      1.0455                 1.0709                 1.0825
 Frc consts  --      1.3458                 1.3881                 1.4130
 IR Inten    --     11.9423                 6.4808                 2.8898

                     79                     80                     81
                      A                      A                      A
 Frequencies --   1502.8899              1516.3774              1521.3577
 Red. masses --      1.0884                 1.7698                 1.2858
 Frc consts  --      1.4485                 2.3977                 1.7534
 IR Inten    --     10.9490                31.1495                13.1605

                     82                     83                     84
                      A                      A                      A
 Frequencies --   1620.4508              1624.8147              1630.0725
 Red. masses --      1.4244                 1.4678                 1.0905
 Frc consts  --      2.2037                 2.2830                 1.7072
 IR Inten    --     63.1863                66.0906                74.3879

                     85                     86                     87
                      A                      A                      A
 Frequencies --   1646.2552              1671.2581              1700.7866
 Red. masses --      1.0904                 1.0916                 4.5649
 Frc consts  --      1.7411                 1.7963                 7.7801
 IR Inten    --     15.2733                20.6892                 4.9088

                     88                     89                     90
                      A                      A                      A
 Frequencies --   1717.7351              2661.0770              2926.6134
 Red. masses --      2.7333                 1.1159                 1.0820
 Frc consts  --      4.7517                 4.6558                 5.4601
 IR Inten    --      7.6719              3723.0452                42.9404

                     91                     92                     93
                      A                      A                      A
 Frequencies --   2952.4740              2960.7011              3086.8957
 Red. masses --      1.0719                 1.0566                 1.0622
 Frc consts  --      5.5053                 5.4570                 5.9634
 IR Inten    --     51.5700                89.8364                18.4353

                     94                     95                     96
                      A                      A                      A
 Frequencies --   3090.0597              3100.8807              3120.8335
 Red. masses --      1.0801                 1.0650                 1.0896
 Frc consts  --      6.0766                 6.0333                 6.2528
 IR Inten    --     28.8983                21.9638                24.4276

                     97                     98                     99
                      A                      A                      A
 Frequencies --   3137.1519              3144.4450              3159.7089
 Red. masses --      1.1053                 1.1018                 1.1061
 Frc consts  --      6.4093                 6.4188                 6.5063
 IR Inten    --      2.7761                17.9015                24.7012

                    100                    101                    102
                      A                      A                      A
 Frequencies --   3222.8416              3238.0689              3243.2141
 Red. masses --      1.0917                 1.0951                 1.0931
 Frc consts  --      6.6811                 6.7650                 6.7740
 IR Inten    --      0.8887                 0.7444                 1.9717

                    103                    104                    105
                      A                      A                      A
 Frequencies --   3258.1838              3503.4571              3646.1126
 Red. masses --      1.1001                 1.0608                 1.0585
 Frc consts  --      6.8805                 7.6711                 8.2906
 IR Inten    --      0.8465              1188.4932               606.4641

                    106                    107                    108
                      A                      A                      A
 Frequencies --   3678.0680              3877.2231              3877.5214
 Red. masses --      1.0741                 1.0453                 1.0452
 Frc consts  --      8.5616                 9.2584                 9.2588
 IR Inten    --    786.9485                22.3047                25.4080

                    109                    110                    111
                      A                      A                      A
 Frequencies --   3955.6613              3982.8490              3984.2116
 Red. masses --      1.0696                 1.0828                 1.0829
 Frc consts  --      9.8605                10.1199                10.1281
 IR Inten    --     95.8938               105.9308               110.3121

 - Thermochemistry -
 -------------------
 Temperature   298.150 Kelvin.  Pressure   1.00000 Atm.
 Atom     1 has atomic number  6 and mass  12.00000

 Molecular mass:   235.16578 amu.
 Principal axes and moments of inertia in atomic units:
                           1         2         3
     Eigenvalues --  3263.84832********************
           X            1.00000  -0.00026   0.00154
           Y            0.00024   0.99992   0.01302
           Z           -0.00154  -0.01302   0.99991
 This molecule is an asymmetric top.
 Rotational symmetry number  1.
 Warning -- assumption of classical behavior for rotation
           may cause significant error
 Rotational temperatures (Kelvin)      0.02654     0.00752     0.00684
 Rotational constants (GHZ):           0.55295     0.15668     0.14245
 Zero-point vibrational energy     890993.4 (Joules/Mol)
                                  212.95253 (Kcal/Mol)
 Warning -- explicit consideration of  33 degrees of freedom as
           vibrations may cause significant error
 Vibrational temperatures:      7.44    14.57    22.62    24.79    38.42
          (Kelvin)             47.95    54.63    62.17    64.40   130.64
                              141.85   152.12   162.90   204.12   229.35
                              263.91   271.13   275.46   303.15   312.91
                              332.64   350.05   355.08   379.02   404.36
                              437.70   505.28   519.18   595.74   599.12
                              603.98   788.77   851.50   916.34   930.19
                              962.05   994.43  1028.32  1040.61  1069.78
                             1114.78  1208.32  1227.66  1228.24  1328.89
                             1346.58  1367.38  1393.99  1419.62  1441.92
                             1498.81  1502.67  1526.77  1554.67  1563.74
                             1600.88  1637.06  1641.43  1724.73  1737.41
                             1755.78  1789.64  1808.56  1829.02  1858.85
                             1876.81  1878.75  1903.01  1912.02  1939.89
                             1954.16  1984.14  2000.20  2075.16  2092.12
                             2126.73  2134.08  2141.54  2162.32  2181.73
                             2188.89  2331.47  2337.75  2345.31  2368.59
                             2404.57  2447.05  2471.44  3828.70  4210.74
                             4247.95  4259.79  4441.35  4445.91  4461.48
                             4490.18  4513.66  4524.16  4546.12  4636.95
                             4658.86  4666.26  4687.80  5040.69  5245.94
                             5291.92  5578.46  5578.89  5691.31  5730.43
                             5732.39

 Zero-point correction=                           0.339361 (Hartree/Particle)
 Thermal correction to Energy=                    0.363784
 Thermal correction to Enthalpy=                  0.364728
 Thermal correction to Gibbs Free Energy=         0.276434
 Sum of electronic and zero-point Energies=           -804.682869
 Sum of electronic and thermal Energies=              -804.658446
 Sum of electronic and thermal Enthalpies=            -804.657502
 Sum of electronic and thermal Free Energies=         -804.745797

                     E (Thermal)             CV                S
                      KCal/Mol        Cal/Mol-Kelvin    Cal/Mol-Kelvin
 Total                  228.278             81.161            185.832
 Electronic               0.000              0.000              0.000
 Translational            0.889              2.981             42.267
 Rotational               0.889              2.981             34.520
 Vibrational            226.501             75.199            109.045
 Vibration     1          0.593              1.987              9.322
 Vibration     2          0.593              1.987              7.986
 Vibration     3          0.593              1.986              7.112
 Vibration     4          0.593              1.986              6.930
 Vibration     5          0.593              1.984              6.060
 Vibration     6          0.594              1.983              5.621
 Vibration     7          0.594              1.982              5.362
 Vibration     8          0.595              1.980              5.106
 Vibration     9          0.595              1.979              5.037
 Vibration    10          0.602              1.956              3.643
 Vibration    11          0.604              1.950              3.482
 Vibration    12          0.605              1.945              3.346
 Vibration    13          0.607              1.939              3.213
 Vibration    14          0.615              1.911              2.778
 Vibration    15          0.621              1.892              2.557
 Vibration    16          0.631              1.862              2.293
 Vibration    17          0.633              1.856              2.243
 Vibration    18          0.634              1.852              2.214
 Vibration    19          0.643              1.825              2.038
 Vibration    20          0.646              1.814              1.980
 Vibration    21          0.653              1.793              1.870
 Vibration    22          0.659              1.774              1.779
 Vibration    23          0.661              1.768              1.753
 Vibration    24          0.670              1.740              1.639
 Vibration    25          0.681              1.709              1.527
 Vibration    26          0.695              1.666              1.394
 Vibration    27          0.728              1.573              1.161
 Vibration    28          0.735              1.553              1.118
 Vibration    29          0.778              1.440              0.912
 Vibration    30          0.780              1.435              0.904
 Vibration    31          0.782              1.427              0.893
 Vibration    32          0.903              1.144              0.548
 Vibration    33          0.949              1.049              0.464

                           ! Non-Optimized Parameters !
 Normal termination of Gaussian 16 at Fri Jan 27 21:06:32 2023.
