 Gaussian 16, Revision A.03,
 Gaussian 16:  ES64L-G16RevA.03 25-Dec-2016

 -----------------------------------------
 # wB97XD/aug-cc-pVDZ Temperature=130 Freq
 -----------------------------------------

 ---------------------------
 p-Py Nicotine, W anti, 4H2O
 ---------------------------
 Symbolic Z-matrix:
 Charge =  1 Multiplicity = 1

                         Standard orientation:
 ---------------------------------------------------------------------
 Center     Atomic      Atomic             Coordinates (Angstroms)
 Number     Number       Type             X           Y           Z
 ---------------------------------------------------------------------
      1          6           0        1.900333   -2.304806   -0.067924
      2          6           0        0.878833   -1.360328   -0.183129
      3          6           0        1.254853   -0.036108   -0.385032
      4          7           0        2.548918    0.301637   -0.453505
      5          6           0        3.544708   -0.592090   -0.344978
      6          6           0        3.241386   -1.926242   -0.155541
      7          6           0       -0.579464   -1.746203   -0.105054
      8          7           0       -1.332909   -0.946712    0.866993
      9          6           0       -2.735137   -1.280689    0.581566
     10          6           0       -2.816830   -1.276442   -0.950289
     11          6           0       -1.364767   -1.543194   -1.415269
     12          8           0        2.829686    2.922488   -0.463056
     13          8           0        0.793044    3.146894    1.202781
     14          8           0       -1.258188    1.781876    0.159200
     15          1           0       -3.400279   -0.550963    1.058919
     16          1           0       -3.513188   -2.039415   -1.312205
     17          1           0       -3.167818   -0.304845   -1.313401
     18          1           0       -1.273253   -2.418410   -2.067105
     19          1           0       -0.966089   -0.680462   -1.962690
     20          1           0       -2.979683   -2.279530    0.988229
     21          1           0       -0.624998   -2.815520    0.182615
     22          1           0        0.538072    0.779396   -0.485266
     23          1           0        4.558119   -0.203717   -0.408025
     24          1           0        4.042214   -2.656281   -0.066519
     25          1           0        1.647178   -3.352481    0.097031
     26          6           0       -0.952896   -1.183930    2.252955
     27          1           0        2.763331    1.331501   -0.563627
     28          1           0       -1.350834    0.854512    0.474771
     29          1           0       -2.121049    2.045806   -0.200461
     30          1           0        2.097957    3.194355    0.140532
     31          1           0        2.894352    3.578191   -1.160434
     32          1           0        0.598001    3.785899    1.890432
     33          1           0       -0.060373    2.771649    0.894219
     34          8           0       -3.795380    2.310322   -0.919066
     35          1           0       -4.515048    2.646893   -0.377846
     36          1           0       -3.894206    2.745829   -1.770291
     37          1           0        0.089605   -0.883933    2.416878
     38          1           0       -1.067672   -2.246810    2.535326
     39          1           0       -1.585813   -0.578585    2.911809
 ---------------------------------------------------------------------

 SCF Done:  E(RwB97XD) =  -805.034102477     A.U. after   16 cycles

 The electronic state is 1-A.
 Alpha  occ. eigenvalues --  -19.40340 -19.38791 -19.37360 -19.36434 -14.67103
 Alpha  occ. eigenvalues --  -14.57475 -10.50668 -10.50049 -10.47486 -10.46897
 Alpha  occ. eigenvalues --  -10.46557 -10.46017 -10.42908 -10.42706 -10.41154
 Alpha  occ. eigenvalues --  -10.39976  -1.25498  -1.24635  -1.23304  -1.21709
 Alpha  occ. eigenvalues --   -1.20283  -1.17009  -1.07936  -1.04308  -1.00093
 Alpha  occ. eigenvalues --   -0.95530  -0.90241  -0.89288  -0.88381  -0.82184
 Alpha  occ. eigenvalues --   -0.79235  -0.79161  -0.74903  -0.74819  -0.74413
 Alpha  occ. eigenvalues --   -0.73861  -0.72863  -0.72493  -0.70647  -0.69232
 Alpha  occ. eigenvalues --   -0.68331  -0.67559  -0.65242  -0.64185  -0.63403
 Alpha  occ. eigenvalues --   -0.62608  -0.62106  -0.61236  -0.59910  -0.58376
 Alpha  occ. eigenvalues --   -0.57678  -0.56953  -0.56288  -0.55754  -0.55230
 Alpha  occ. eigenvalues --   -0.53523  -0.53304  -0.52982  -0.52505  -0.51416
 Alpha  occ. eigenvalues --   -0.51117  -0.50252  -0.48961  -0.43765
 Alpha virt. eigenvalues --   -0.13516  -0.10666  -0.06223  -0.05547  -0.04776
 Alpha virt. eigenvalues --   -0.04155  -0.03776  -0.02938  -0.02802  -0.02438
 Alpha virt. eigenvalues --   -0.02143  -0.01507  -0.01144  -0.00401  -0.00081

 Mulliken charges:
               1
     1  C    1.284604
     2  C    0.607081
     3  C    0.613766
     4  N    0.033712
     5  C    0.724447
     6  C    0.369351
     7  C    1.397911
     8  N   -1.239595
     9  C    1.249076
    10  C    1.084118
    11  C    0.977843
    12  O   -0.444601
    13  O   -0.403094
    14  O   -0.501077
    15  H   -0.573456
    16  H   -0.312509
    17  H   -0.363483
    18  H   -0.529559
    19  H   -0.323476
    20  H   -0.573711
    21  H   -0.858291
    22  H   -1.161913
    23  H   -0.620245
    24  H   -0.561368
    25  H   -0.897568
    26  C    0.925276
    27  H    0.078911
    28  H    0.517664
    29  H    0.223647
    30  H    0.245472
    31  H    0.156186
    32  H    0.165732
    33  H    0.299153
    34  O   -0.488441
    35  H    0.222320
    36  H    0.213543
    37  H   -0.170233
    38  H   -0.169504
    39  H   -0.197688
 Sum of Mulliken charges =   1.00000

 Dipole moment (field-independent basis, Debye):
    X=              0.8697    Y=              0.4249    Z=             -1.3032  Tot=              1.6234
 Quadrupole moment (field-independent basis, Debye-Ang):
   XX=            -43.7410   YY=            -59.6630   ZZ=            -87.5273
   XY=            -15.3850   XZ=             -1.8229   YZ=             -4.5529

  Exact polarizability: 193.547  -0.481 165.678  -1.816  -2.935 129.692
 Approx polarizability: 193.317  -1.276 185.000  -1.689  -5.570 146.472

                      1                      2                      3
                      A                      A                      A
 Frequencies --     19.9749                34.0644                36.3477
 Red. masses --      4.6895                 4.7169                 4.4833
 Frc consts  --      0.0011                 0.0032                 0.0035
 IR Inten    --      2.6347                 0.6823                 0.4772

                      4                      5                      6
                      A                      A                      A
 Frequencies --     48.9601                56.4542                67.8162
 Red. masses --      4.6292                 4.3462                 5.1559
 Frc consts  --      0.0065                 0.0082                 0.0140
 IR Inten    --      0.3255                 1.9521                 0.3069

                      7                      8                      9
                      A                      A                      A
 Frequencies --     81.9820                92.7265               102.9067
 Red. masses --      4.5545                 2.3278                 4.8489
 Frc consts  --      0.0180                 0.0118                 0.0303
 IR Inten    --      0.9462                 0.5958                 4.5721

                     10                     11                     12
                      A                      A                      A
 Frequencies --    119.7129               138.4679               146.1418
 Red. masses --      3.8687                 3.8822                 1.1002
 Frc consts  --      0.0327                 0.0439                 0.0138
 IR Inten    --      5.0630                 3.9177                18.8429

                     13                     14                     15
                      A                      A                      A
 Frequencies --    158.6156               200.9026               204.5619
 Red. masses --      1.9456                 3.5857                 2.9961
 Frc consts  --      0.0288                 0.0853                 0.0739
 IR Inten    --      0.5827                 7.5706                 6.1198

                     16                     17                     18
                      A                      A                      A
 Frequencies --    216.8752               242.2234               243.8028
 Red. masses --      1.2775                 1.0996                 3.5430
 Frc consts  --      0.0354                 0.0380                 0.1241
 IR Inten    --    118.3683                 9.4740                 8.5368

                     19                     20                     21
                      A                      A                      A
 Frequencies --    245.3827               261.2214               267.0646
 Red. masses --      1.2789                 1.1659                 2.4733
 Frc consts  --      0.0454                 0.0469                 0.1039
 IR Inten    --      5.5177                97.6182                 0.0148

                     22                     23                     24
                      A                      A                      A
 Frequencies --    273.1786               289.7259               313.4948
 Red. masses --      1.4953                 3.2286                 4.1043
 Frc consts  --      0.0657                 0.1597                 0.2377
 IR Inten    --    247.4523                 8.0647                 5.1856

                     25                     26                     27
                      A                      A                      A
 Frequencies --    335.3579               395.5234               412.0906
 Red. masses --      5.2772                 2.8998                 3.0813
 Frc consts  --      0.3497                 0.2673                 0.3083
 IR Inten    --      6.6307                12.7672                 7.5730

                     28                     29                     30
                      A                      A                      A
 Frequencies --    419.2587               495.0532               525.4567
 Red. masses --      2.9514                 1.0598                 1.2882
 Frc consts  --      0.3057                 0.1530                 0.2096
 IR Inten    --      4.4594                29.8581                35.9748

                     31                     32                     33
                      A                      A                      A
 Frequencies --    556.3115               584.0629               626.5264
 Red. masses --      2.6867                 2.9438                 1.1894
 Frc consts  --      0.4899                 0.5917                 0.2751
 IR Inten    --     18.7379                 6.7928                18.2467

                     34                     35                     36
                      A                      A                      A
 Frequencies --    638.2958               649.8467               673.2337
 Red. masses --      4.0771                 2.8152                 5.1945
 Frc consts  --      0.9787                 0.7005                 1.3871
 IR Inten    --     21.4656                 8.6738                 5.1568

                     37                     38                     39
                      A                      A                      A
 Frequencies --    710.0898               724.2397               783.1472
 Red. masses --      1.3769                 1.3913                 1.4864
 Frc consts  --      0.4091                 0.4300                 0.5371
 IR Inten    --      4.1920               106.0065                 9.4960

                     40                     41                     42
                      A                      A                      A
 Frequencies --    813.2273               837.8897               842.8731
 Red. masses --      1.0867                 1.5766                 2.1559
 Frc consts  --      0.4234                 0.6521                 0.9024
 IR Inten    --    191.2315                43.6847                 3.6915

                     43                     44                     45
                      A                      A                      A
 Frequencies --    854.8058               904.8866               935.2320
 Red. masses --      1.0648                 1.0558                 2.0275
 Frc consts  --      0.4584                 0.5094                 1.0448
 IR Inten    --     59.7253               103.8801                 5.4293

                     46                     47                     48
                      A                      A                      A
 Frequencies --    939.0745               955.1488               981.7139
 Red. masses --      2.3878                 2.4257                 1.4478
 Frc consts  --      1.2407                 1.3039                 0.8221
 IR Inten    --     17.1743                11.6237                 0.8327

                     49                     50                     51
                      A                      A                      A
 Frequencies --    993.1131              1015.9384              1037.2736
 Red. masses --      1.5500                 1.6526                 1.3648
 Frc consts  --      0.9007                 1.0049                 0.8652
 IR Inten    --      4.7599                12.8416                 2.1411

                     52                     53                     54
                      A                      A                      A
 Frequencies --   1046.2272              1056.3068              1076.3306
 Red. masses --      4.3156                 2.3575                 1.8299
 Frc consts  --      2.7832                 1.5498                 1.2490
 IR Inten    --      3.2298                 1.9469                16.5142

                     55                     56                     57
                      A                      A                      A
 Frequencies --   1092.7006              1117.7943              1141.6977
 Red. masses --      2.1623                 2.2846                 1.2845
 Frc consts  --      1.5211                 1.6818                 0.9865
 IR Inten    --      4.0644                 9.3943                 3.5612

                     58                     59                     60
                      A                      A                      A
 Frequencies --   1149.3565              1199.7695              1214.2490
 Red. masses --      1.5211                 1.7904                 1.3048
 Frc consts  --      1.1839                 1.5184                 1.1335
 IR Inten    --      7.7313                16.0201                 8.4695

                     61                     62                     63
                      A                      A                      A
 Frequencies --   1225.7811              1227.0915              1244.6044
 Red. masses --      1.1198                 1.4152                 1.7547
 Frc consts  --      0.9913                 1.2555                 1.6015
 IR Inten    --     29.7776                 6.0585                 8.8921

                     64                     65                     66
                      A                      A                      A
 Frequencies --   1259.8461              1264.0873              1291.8410
 Red. masses --      1.7965                 1.7860                 1.4982
 Frc consts  --      1.6800                 1.6815                 1.4731
 IR Inten    --     11.3401                13.8953                 2.0093

                     67                     68                     69
                      A                      A                      A
 Frequencies --   1299.4542              1329.5875              1332.3524
 Red. masses --      1.4386                 1.7222                 1.5751
 Frc consts  --      1.4313                 1.7938                 1.6474
 IR Inten    --     10.9996                15.3997                 4.4076

                     70                     71                     72
                      A                      A                      A
 Frequencies --   1356.6921              1377.8806              1381.9734
 Red. masses --      1.3783                 1.8131                 1.5413
 Frc consts  --      1.4948                 2.0281                 1.7343
 IR Inten    --      4.6028                14.4367                 4.3487

                     73                     74                     75
                      A                      A                      A
 Frequencies --   1401.0218              1441.2189              1452.8567
 Red. masses --      1.8514                 1.5184                 1.2554
 Frc consts  --      2.1412                 1.8582                 1.5612
 IR Inten    --      2.5206                21.9349                 9.6582

                     76                     77                     78
                      A                      A                      A
 Frequencies --   1482.5548              1485.7165              1489.4303
 Red. masses --      1.0460                 1.0671                 1.0780
 Frc consts  --      1.3545                 1.3878                 1.4090
 IR Inten    --     13.7173                 7.2872                 3.6065

                     79                     80                     81
                      A                      A                      A
 Frequencies --   1507.5643              1518.0708              1526.1814
 Red. masses --      1.0867                 1.6931                 1.2967
 Frc consts  --      1.4552                 2.2989                 1.7795
 IR Inten    --     11.6552                37.8195                 6.6343

                     82                     83                     84
                      A                      A                      A
 Frequencies --   1612.4296              1633.9398              1639.3356
 Red. masses --      1.1744                 1.8915                 1.0902
 Frc consts  --      1.7990                 2.9753                 1.7263
 IR Inten    --    102.1549                10.5458                73.7864

                     85                     86                     87
                      A                      A                      A
 Frequencies --   1664.8725              1695.9981              1707.3467
 Red. masses --      1.1173                 1.3008                 2.5786
 Frc consts  --      1.8246                 2.2045                 4.4288
 IR Inten    --     33.1314                18.6049                14.2914

                     88                     89                     90
                      A                      A                      A
 Frequencies --   1721.0013              2865.6234              2962.9190
 Red. masses --      2.4405                 1.1041                 1.0833
 Frc consts  --      4.2589                 5.3421                 5.6032
 IR Inten    --     26.6838              1954.9525                41.9657

                     91                     92                     93
                      A                      A                      A
 Frequencies --   2989.3385              2993.1722              3088.8857
 Red. masses --      1.0527                 1.0700                 1.0634
 Frc consts  --      5.5424                 5.6480                 5.9777
 IR Inten    --     33.0204                89.7664                16.0099

                     94                     95                     96
                      A                      A                      A
 Frequencies --   3105.1215              3106.3640              3117.3967
 Red. masses --      1.0664                 1.0845                 1.0902
 Frc consts  --      6.0581                 6.1658                 6.2423
 IR Inten    --     13.8827                18.9169                19.3900

                     97                     98                     99
                      A                      A                      A
 Frequencies --   3145.3302              3150.3430              3164.7421
 Red. masses --      1.1047                 1.1038                 1.1062
 Frc consts  --      6.4393                 6.4545                 6.5277
 IR Inten    --      3.1676                13.6266                19.6078

                    100                    101                    102
                      A                      A                      A
 Frequencies --   3205.3537              3213.0472              3244.6064
 Red. masses --      1.0984                 1.0924                 1.0931
 Frc consts  --      6.6491                 6.6448                 6.7803
 IR Inten    --     57.1017                 0.8264                 1.3047

                    103                    104                    105
                      A                      A                      A
 Frequencies --   3260.8763              3378.8795              3416.7604
 Red. masses --      1.1004                 1.0649                 1.0655
 Frc consts  --      6.8942                 7.1632                 7.3287
 IR Inten    --      2.8498              1310.9501               794.7940

                    106                    107                    108
                      A                      A                      A
 Frequencies --   3517.4914              3702.8957              3873.2391
 Red. masses --      1.0634                 1.0683                 1.0455
 Frc consts  --      7.7521                 8.6301                 9.2415
 IR Inten    --    532.1769               668.5758                25.0943

                    109                    110                    111
                      A                      A                      A
 Frequencies --   3950.3817              3957.5229              3976.8415
 Red. masses --      1.0677                 1.0684                 1.0824
 Frc consts  --      9.8170                 9.8587                10.0861
 IR Inten    --    115.1840               114.5852               103.1321

 - Thermochemistry -
 -------------------
 Temperature   130.000 Kelvin.  Pressure   1.00000 Atm.
 Atom     1 has atomic number  6 and mass  12.00000

 Molecular mass:   235.16578 amu.
 Principal axes and moments of inertia in atomic units:
                           1         2         3
     Eigenvalues --  3641.512245127.326277321.97551
           X            0.99997   0.00795   0.00197
           Y           -0.00793   0.99994  -0.00734
           Z           -0.00203   0.00733   0.99997
 This molecule is an asymmetric top.
 Rotational symmetry number  1.
 Warning -- assumption of classical behavior for rotation
           may cause significant error
 Rotational temperatures (Kelvin)      0.02379     0.01689     0.01183
 Rotational constants (GHZ):           0.49560     0.35198     0.24648
 Zero-point vibrational energy     900516.3 (Joules/Mol)
                                  215.22856 (Kcal/Mol)
 Warning -- explicit consideration of  21 degrees of freedom as
           vibrations may cause significant error
 Vibrational temperatures:     28.74    49.01    52.30    70.44    81.22
          (Kelvin)             97.57   117.95   133.41   148.06   172.24
                              199.22   210.27   228.21   289.05   294.32
                              312.04   348.51   350.78   353.05   375.84
                              384.25   393.04   416.85   451.05   482.51
                              569.07   592.91   603.22   712.27   756.02
                              800.41   840.34   901.43   918.37   934.98
                              968.63  1021.66  1042.02  1126.77  1170.05
                             1205.54  1212.71  1229.87  1301.93  1345.59
                             1351.12  1374.25  1412.47  1428.87  1461.71
                             1492.41  1505.29  1519.79  1548.60  1572.15
                             1608.26  1642.65  1653.67  1726.20  1747.03
                             1763.63  1765.51  1790.71  1812.64  1818.74
                             1858.67  1869.62  1912.98  1916.96  1951.98
                             1982.46  1988.35  2015.76  2073.59  2090.34
                             2133.07  2137.61  2142.96  2169.05  2184.17
                             2195.83  2319.93  2350.87  2358.64  2395.38
                             2440.16  2456.49  2476.14  4122.99  4262.98
                             4300.99  4306.51  4444.22  4467.58  4469.36
                             4485.24  4525.43  4532.64  4553.36  4611.79
                             4622.86  4668.27  4691.67  4861.45  4915.96
                             5060.89  5327.64  5572.73  5683.72  5693.99
                             5721.79

 Zero-point correction=                           0.342989 (Hartree/Particle)
 Thermal correction to Energy=                    0.348545
 Thermal correction to Enthalpy=                  0.348957
 Thermal correction to Gibbs Free Energy=         0.326522
 Sum of electronic and zero-point Energies=           -804.691114
 Sum of electronic and thermal Energies=              -804.685557
 Sum of electronic and thermal Enthalpies=            -804.685145
 Sum of electronic and thermal Free Energies=         -804.707581

                     E (Thermal)             CV                S
                      KCal/Mol        Cal/Mol-Kelvin    Cal/Mol-Kelvin
 Total                  218.715             44.936            108.295
 Electronic               0.000              0.000              0.000
 Translational            0.388              2.981             38.143
 Rotational               0.388              2.981             30.806
 Vibrational            217.940             38.975             39.346
 Vibration     1          0.259              1.979              4.990
 Vibration     2          0.261              1.964              3.937
 Vibration     3          0.262              1.961              3.810
 Vibration     4          0.265              1.939              3.229
 Vibration     5          0.267              1.924              2.954
 Vibration     6          0.270              1.896              2.603
 Vibration     7          0.276              1.856              2.247
 Vibration     8          0.281              1.822              2.021
 Vibration     9          0.286              1.786              1.833
 Vibration    10          0.295              1.720              1.567
 Vibration    11          0.307              1.640              1.323
 Vibration    12          0.312              1.605              1.235
 Vibration    13          0.322              1.547              1.106
 Vibration    14          0.357              1.337              0.764
 Vibration    15          0.360              1.318              0.740
 Vibration    16          0.372              1.256              0.665
 Vibration    17          0.397              1.128              0.533
 Vibration    18          0.399              1.120              0.526
 Vibration    19          0.400              1.112              0.518
 Vibration    20          0.417              1.034              0.451
 Vibration    21          0.424              1.005              0.429

 Optimization completed.
    -- Stationary point found.
 Normal termination of Gaussian 16 at Thu Aug 27 14:44:50 2020.
