 Gaussian 16, Revision A.03,
 Gaussian 16:  ES64L-G16RevA.03 25-Dec-2016

 -----------------------------------------
 # wB97XD/aug-cc-pVDZ Temperature=130 Freq
 -----------------------------------------

 ---------------------------
 p-Py Nicotine, W anti, 4H2O
 ---------------------------
 Symbolic Z-matrix:
 Charge =  1 Multiplicity = 1

                         Standard orientation:
 ---------------------------------------------------------------------
 Center     Atomic      Atomic             Coordinates (Angstroms)
 Number     Number       Type             X           Y           Z
 ---------------------------------------------------------------------
      1          6           0        0.409044    2.733891   -0.103707
      2          6           0        0.469375    1.356942   -0.333720
      3          6           0       -0.734194    0.658532   -0.346427
      4          7           0       -1.893112    1.302571   -0.146074
      5          6           0       -1.966678    2.623227    0.083162
      6          6           0       -0.810063    3.377164    0.110735
      7          6           0        1.795427    0.660334   -0.545188
      8          7           0        2.218765   -0.106875    0.636806
      9          6           0        3.359185   -0.896560    0.144768
     10          6           0        2.887458   -1.414918   -1.216535
     11          6           0        1.849826   -0.368269   -1.690245
     12          8           0       -4.216954    0.046075   -0.147228
     13          8           0       -3.572811   -2.397104    0.590330
     14          8           0       -1.166054   -2.579230   -0.679352
     15          1           0        3.600538   -1.692672    0.858241
     16          1           0        3.722415   -1.520320   -1.916001
     17          1           0        2.418327   -2.398492   -1.106008
     18          1           0        2.133264    0.119604   -2.628581
     19          1           0        0.872604   -0.837637   -1.849272
     20          1           0        4.248875   -0.249364    0.035454
     21          1           0        2.546638    1.450321   -0.742191
     22          1           0       -0.813741   -0.414760   -0.525042
     23          1           0       -2.962478    3.032422    0.236042
     24          1           0       -0.862884    4.447729    0.293044
     25          1           0        1.332273    3.314047   -0.092315
     26          6           0        2.553306    0.720315    1.789038
     27          1           0       -2.804308    0.758984   -0.183444
     28          1           0       -0.505590   -2.607869    0.050921
     29          1           0       -0.921081   -3.269620   -1.299809
     30          1           0       -4.127721   -0.897131    0.134257
     31          1           0       -4.847426    0.060712   -0.871100
     32          1           0       -4.068706   -3.196914    0.775126
     33          1           0       -2.764432   -2.650508    0.102224
     34          1           0        1.128833   -1.432317    1.141554
     35          8           0        0.599839   -2.258773    1.272219
     36          1           0        0.445732   -2.369896    2.212393
     37          1           0        2.920024    0.081192    2.600543
     38          1           0        1.662848    1.249736    2.150346
     39          1           0        3.338145    1.461192    1.549449
 ---------------------------------------------------------------------

 SCF Done:  E(RwB97XD) =  -805.034439199     A.U. after   15 cycles

 The electronic state is 1-A.
 Alpha  occ. eigenvalues --  -19.39189 -19.38742 -19.38024 -19.37918 -14.67447
 Alpha  occ. eigenvalues --  -14.58229 -10.51092 -10.50634 -10.47949 -10.47366
 Alpha  occ. eigenvalues --  -10.46966 -10.46528 -10.43487 -10.43248 -10.41480
 Alpha  occ. eigenvalues --  -10.40438  -1.25847  -1.23932  -1.23464  -1.22049
 Alpha  occ. eigenvalues --   -1.21412  -1.17558  -1.08356  -1.04765  -1.00619
 Alpha  occ. eigenvalues --   -0.95978  -0.90735  -0.89807  -0.88820  -0.82484
 Alpha  occ. eigenvalues --   -0.79825  -0.79661  -0.75148  -0.74844  -0.74805
 Alpha  occ. eigenvalues --   -0.74038  -0.73373  -0.73285  -0.70914  -0.69365
 Alpha  occ. eigenvalues --   -0.69130  -0.68137  -0.65827  -0.64861  -0.64049
 Alpha  occ. eigenvalues --   -0.63113  -0.62280  -0.61472  -0.59920  -0.58835
 Alpha  occ. eigenvalues --   -0.58062  -0.57186  -0.56938  -0.56300  -0.55600
 Alpha  occ. eigenvalues --   -0.53886  -0.53597  -0.52994  -0.52277  -0.51883
 Alpha  occ. eigenvalues --   -0.51734  -0.51280  -0.49631  -0.44609
 Alpha virt. eigenvalues --   -0.13992  -0.11156  -0.06452  -0.05450  -0.04946
 Alpha virt. eigenvalues --   -0.04533  -0.03562  -0.03389  -0.03082  -0.02561
 Alpha virt. eigenvalues --   -0.02177  -0.01427  -0.01264  -0.00827  -0.00370

 Mulliken charges:
               1
     1  C    1.423661
     2  C    0.379571
     3  C    1.176455
     4  N    0.001048
     5  C    0.814095
     6  C    0.303632
     7  C    0.781001
     8  N   -1.447408
     9  C    1.348399
    10  C    0.861877
    11  C    1.062429
    12  O   -0.409490
    13  O   -0.353698
    14  O   -0.572160
    15  H   -0.560898
    16  H   -0.276551
    17  H   -0.337335
    18  H   -0.515610
    19  H   -0.358934
    20  H   -0.501102
    21  H   -0.778636
    22  H   -1.042896
    23  H   -0.663855
    24  H   -0.577220
    25  H   -0.932789
    26  C    1.121217
    27  H    0.071259
    28  H    0.305522
    29  H    0.216193
    30  H    0.240742
    31  H    0.136641
    32  H    0.164036
    33  H    0.231298
    34  H    0.426432
    35  O   -0.383205
    36  H    0.160078
    37  H   -0.211777
    38  H   -0.174927
    39  H   -0.127097
 Sum of Mulliken charges =   1.00000

 Dipole moment (field-independent basis, Debye):
    X=             -1.6661    Y=              2.4274    Z=             -0.5329  Tot=              2.9920
 Quadrupole moment (field-independent basis, Debye-Ang):
   XX=            -57.9831   YY=            -58.1982   ZZ=            -88.4887
   XY=              2.4643   XZ=              5.4675   YZ=              1.1763

  Exact polarizability: 185.015  -8.709 174.705  -1.426   6.157 128.522
 Approx polarizability: 189.311  -1.498 188.811  -2.863   6.023 146.973

                      1                      2                      3
                      A                      A                      A
 Frequencies --     23.1919                30.5012                38.7189
 Red. masses --      4.3019                 4.7969                 4.2270
 Frc consts  --      0.0014                 0.0026                 0.0037
 IR Inten    --      0.5554                 1.8060                 1.0327

                      4                      5                      6
                      A                      A                      A
 Frequencies --     49.0405                52.3553                69.6562
 Red. masses --      6.9582                 3.5287                 4.6452
 Frc consts  --      0.0099                 0.0057                 0.0133
 IR Inten    --      1.0467                 1.5280                 1.0515

                      7                      8                      9
                      A                      A                      A
 Frequencies --     75.1284                84.8150               100.3259
 Red. masses --      2.8776                 4.3114                 4.5650
 Frc consts  --      0.0096                 0.0183                 0.0271
 IR Inten    --      1.8303                 3.8374                 3.6853

                     10                     11                     12
                      A                      A                      A
 Frequencies --    116.1143               167.1097               178.6422
 Red. masses --      4.0654                 2.1464                 3.0390
 Frc consts  --      0.0323                 0.0353                 0.0571
 IR Inten    --      2.1225                10.3115                20.4657

                     13                     14                     15
                      A                      A                      A
 Frequencies --    195.0149               208.8987               211.7805
 Red. masses --      1.2012                 2.8788                 1.4490
 Frc consts  --      0.0269                 0.0740                 0.0383
 IR Inten    --    114.9574                33.8668                63.3487

                     16                     17                     18
                      A                      A                      A
 Frequencies --    223.2205               252.0567               258.1400
 Red. masses --      3.2562                 3.0220                 2.4927
 Frc consts  --      0.0956                 0.1131                 0.0979
 IR Inten    --      9.5925                24.9169                23.5241

                     19                     20                     21
                      A                      A                      A
 Frequencies --    272.4299               275.0807               300.7214
 Red. masses --      1.3617                 1.2005                 4.3518
 Frc consts  --      0.0595                 0.0535                 0.2319
 IR Inten    --      5.7381                84.3538                24.2417

                     22                     23                     24
                      A                      A                      A
 Frequencies --    323.1090               332.1214               355.1546
 Red. masses --      5.3261                 4.4008                 1.1163
 Frc consts  --      0.3276                 0.2860                 0.0830
 IR Inten    --     28.0996                 3.0726                32.0128

                     25                     26                     27
                      A                      A                      A
 Frequencies --    395.8815               406.9867               417.4831
 Red. masses --      2.7421                 2.8919                 2.4074
 Frc consts  --      0.2532                 0.2822                 0.2472
 IR Inten    --      4.3460                21.3777                 6.3832

                     28                     29                     30
                      A                      A                      A
 Frequencies --    436.9570               519.9014               532.6617
 Red. masses --      1.1764                 1.0707                 1.3805
 Frc consts  --      0.1323                 0.1705                 0.2308
 IR Inten    --     51.0231               109.3596                 9.9418

                     31                     32                     33
                      A                      A                      A
 Frequencies --    545.3358               565.7843               585.1002
 Red. masses --      1.1843                 2.3821                 2.3370
 Frc consts  --      0.2075                 0.4493                 0.4714
 IR Inten    --     41.3600                 7.7912                10.5588

                     34                     35                     36
                      A                      A                      A
 Frequencies --    634.6200               649.5082               669.9615
 Red. masses --      4.1627                 3.8314                 4.8894
 Frc consts  --      0.9878                 0.9523                 1.2930
 IR Inten    --     18.1073                 3.5501                 9.5729

                     37                     38                     39
                      A                      A                      A
 Frequencies --    712.9360               724.5053               778.3922
 Red. masses --      1.3501                 1.4756                 1.5770
 Frc consts  --      0.4043                 0.4564                 0.5630
 IR Inten    --    123.1263               139.4500                 4.7922

                     40                     41                     42
                      A                      A                      A
 Frequencies --    835.2155               845.8305               860.9442
 Red. masses --      1.6050                 1.8837                 1.1035
 Frc consts  --      0.6597                 0.7940                 0.4819
 IR Inten    --     33.6007                 9.5153                25.9937

                     43                     44                     45
                      A                      A                      A
 Frequencies --    909.0337               931.1962               934.9465
 Red. masses --      1.0706                 1.8064                 2.7593
 Frc consts  --      0.5212                 0.9229                 1.4211
 IR Inten    --    102.7836                53.7789                 4.8841

                     46                     47                     48
                      A                      A                      A
 Frequencies --    955.9897               971.9600               987.2007
 Red. masses --      2.4391                 1.1091                 1.3966
 Frc consts  --      1.3133                 0.6173                 0.8019
 IR Inten    --      8.2724                94.3813                 0.3655

                     49                     50                     51
                      A                      A                      A
 Frequencies --    998.9382              1015.7665              1038.0117
 Red. masses --      1.5214                 1.6867                 1.5097
 Frc consts  --      0.8945                 1.0254                 0.9584
 IR Inten    --      9.4822                 9.3624                 0.5893

                     52                     53                     54
                      A                      A                      A
 Frequencies --   1046.2721              1062.4850              1076.4991
 Red. masses --      3.1995                 2.4045                 1.8224
 Frc consts  --      2.0636                 1.5993                 1.2443
 IR Inten    --      3.6564                 3.4980                13.1133

                     55                     56                     57
                      A                      A                      A
 Frequencies --   1094.9903              1114.2945              1142.1387
 Red. masses --      2.1600                 2.2592                 1.2787
 Frc consts  --      1.5259                 1.6528                 0.9828
 IR Inten    --      1.5995                 6.1119                 4.9891

                     58                     59                     60
                      A                      A                      A
 Frequencies --   1152.4393              1197.9592              1214.3058
 Red. masses --      1.5517                 1.8877                 1.3373
 Frc consts  --      1.2142                 1.5961                 1.1618
 IR Inten    --     11.7755                11.9495                 8.2104

                     61                     62                     63
                      A                      A                      A
 Frequencies --   1229.7165              1235.5318              1243.3086
 Red. masses --      1.3915                 1.1365                 1.9594
 Frc consts  --      1.2398                 1.0222                 1.7846
 IR Inten    --      6.5721                26.7341                10.7211

                     64                     65                     66
                      A                      A                      A
 Frequencies --   1257.4048              1266.3085              1291.2259
 Red. masses --      1.6655                 1.7088                 1.5872
 Frc consts  --      1.5515                 1.6144                 1.5591
 IR Inten    --      7.0007                13.7549                 7.6088

                     67                     68                     69
                      A                      A                      A
 Frequencies --   1302.3201              1328.8555              1334.2300
 Red. masses --      1.3317                 2.0761                 1.5357
 Frc consts  --      1.3307                 2.1600                 1.6107
 IR Inten    --      7.4186                12.7751                 1.4952

                     70                     71                     72
                      A                      A                      A
 Frequencies --   1363.1277              1380.8508              1383.7209
 Red. masses --      1.3304                 1.7773                 1.4907
 Frc consts  --      1.4565                 1.9967                 1.6817
 IR Inten    --      5.5249                16.7037                 2.7151

                     73                     74                     75
                      A                      A                      A
 Frequencies --   1403.6626              1445.7280              1453.3844
 Red. masses --      1.6631                 1.4778                 1.3033
 Frc consts  --      1.9306                 1.8199                 1.6220
 IR Inten    --     10.8495                20.2303                10.9805

                     76                     77                     78
                      A                      A                      A
 Frequencies --   1486.1785              1486.9952              1491.2595
 Red. masses --      1.0564                 1.0648                 1.0703
 Frc consts  --      1.3747                 1.3872                 1.4024
 IR Inten    --      8.2860                10.2695                 7.8479

                     79                     80                     81
                      A                      A                      A
 Frequencies --   1505.0996              1517.9991              1526.7553
 Red. masses --      1.1041                 1.3674                 1.5491
 Frc consts  --      1.4736                 1.8565                 2.1275
 IR Inten    --      8.7728                18.5860                13.7804

                     82                     83                     84
                      A                      A                      A
 Frequencies --   1620.8659              1634.6063              1646.2202
 Red. masses --      1.2433                 1.3581                 1.2416
 Frc consts  --      1.9246                 2.1380                 1.9825
 IR Inten    --    105.1712                11.5188                28.8189

                     85                     86                     87
                      A                      A                      A
 Frequencies --   1661.1947              1668.5658              1704.9318
 Red. masses --      1.0817                 1.3484                 3.7533
 Frc consts  --      1.7587                 2.2118                 6.4281
 IR Inten    --     21.0594                 3.1326                 3.4432

                     88                     89                     90
                      A                      A                      A
 Frequencies --   1734.1744              2795.9438              2965.7164
 Red. masses --      1.9314                 1.1090                 1.0834
 Frc consts  --      3.4222                 5.1079                 5.6144
 IR Inten    --     36.4446              2436.3183                45.2245

                     91                     92                     93
                      A                      A                      A
 Frequencies --   2992.1920              2998.5320              3096.7449
 Red. masses --      1.0508                 1.0713                 1.0617
 Frc consts  --      5.5432                 5.6749                 5.9990
 IR Inten    --     49.6577                79.6420                12.7313

                     94                     95                     96
                      A                      A                      A
 Frequencies --   3105.9095              3107.8505              3131.1644
 Red. masses --      1.0850                 1.0644                 1.0932
 Frc consts  --      6.1670                 6.0573                 6.3150
 IR Inten    --     19.9171                16.4144                12.1731

                     97                     98                     99
                      A                      A                      A
 Frequencies --   3146.5545              3148.8639              3167.1716
 Red. masses --      1.1059                 1.1038                 1.1061
 Frc consts  --      6.4510                 6.4485                 6.5373
 IR Inten    --      1.7490                13.7036                21.1303

                    100                    101                    102
                      A                      A                      A
 Frequencies --   3197.7344              3212.8925              3244.9134
 Red. masses --      1.0988                 1.0925                 1.0925
 Frc consts  --      6.6197                 6.6443                 6.7778
 IR Inten    --     43.2113                 0.4685                 1.3721

                    103                    104                    105
                      A                      A                      A
 Frequencies --   3258.6667              3284.0537              3370.6785
 Red. masses --      1.1011                 1.0679                 1.0647
 Frc consts  --      6.8889                 6.7861                 7.1273
 IR Inten    --      2.8784              1253.2975              1099.1475

                    106                    107                    108
                      A                      A                      A
 Frequencies --   3439.8755              3583.3159              3938.9095
 Red. masses --      1.0639                 1.0611                 1.0675
 Frc consts  --      7.4169                 8.0274                 9.7578
 IR Inten    --    555.8185               575.0166                81.9043

                    109                    110                    111
                      A                      A                      A
 Frequencies --   3939.6914              3947.8298              3956.2019
 Red. masses --      1.0670                 1.0674                 1.0696
 Frc consts  --      9.7575                 9.8019                 9.8630
 IR Inten    --    114.2122                98.8288               143.0194

 - Thermochemistry -
 -------------------
 Temperature   130.000 Kelvin.  Pressure   1.00000 Atm.
 Atom     1 has atomic number  6 and mass  12.00000

 Molecular mass:   235.16578 amu.
 Principal axes and moments of inertia in atomic units:
                           1         2         3
     Eigenvalues --  3470.548895179.263407343.84275
           X            0.99989   0.01418   0.00392
           Y           -0.01422   0.99986   0.00903
           Z           -0.00379  -0.00909   0.99995
 This molecule is an asymmetric top.
 Rotational symmetry number  1.
 Warning -- assumption of classical behavior for rotation
           may cause significant error
 Rotational temperatures (Kelvin)      0.02496     0.01672     0.01179
 Rotational constants (GHZ):           0.52002     0.34846     0.24575
 Zero-point vibrational energy     901932.8 (Joules/Mol)
                                  215.56711 (Kcal/Mol)
 Warning -- explicit consideration of  18 degrees of freedom as
           vibrations may cause significant error
 Vibrational temperatures:     33.37    43.88    55.71    70.56    75.33
          (Kelvin)            100.22   108.09   122.03   144.35   167.06
                              240.43   257.03   280.58   300.56   304.70
                              321.16   362.65   371.41   391.97   395.78
                              432.67   464.88   477.85   510.99   569.59
                              585.56   600.67   628.68   748.02   766.38
                              784.62   814.04   841.83   913.08   934.50
                              963.93  1025.76  1042.40  1119.93  1201.69
                             1216.96  1238.71  1307.90  1339.78  1345.18
                             1375.46  1398.43  1420.36  1437.25  1461.46
                             1493.47  1505.35  1528.68  1548.84  1575.45
                             1603.22  1643.28  1658.10  1723.60  1747.12
                             1769.29  1777.65  1788.84  1809.13  1821.94
                             1857.79  1873.75  1911.93  1919.66  1961.24
                             1986.74  1990.87  2019.56  2080.08  2091.10
                             2138.28  2139.45  2145.59  2165.50  2184.06
                             2196.66  2332.06  2351.83  2368.54  2390.09
                             2400.69  2453.02  2495.09  4022.74  4267.00
                             4305.10  4314.22  4455.53  4468.71  4471.50
                             4505.05  4527.19  4530.51  4556.85  4600.83
                             4622.64  4668.71  4688.49  4725.02  4849.65
                             4949.21  5155.59  5667.21  5668.34  5680.05
                             5692.09

 Zero-point correction=                           0.343528 (Hartree/Particle)
 Thermal correction to Energy=                    0.348874
 Thermal correction to Enthalpy=                  0.349286
 Thermal correction to Gibbs Free Energy=         0.327185
 Sum of electronic and zero-point Energies=           -804.690911
 Sum of electronic and thermal Energies=              -804.685565
 Sum of electronic and thermal Enthalpies=            -804.685153
 Sum of electronic and thermal Free Energies=         -804.707254

                     E (Thermal)             CV                S
                      KCal/Mol        Cal/Mol-Kelvin    Cal/Mol-Kelvin
 Total                  218.922             43.077            106.682
 Electronic               0.000              0.000              0.000
 Translational            0.388              2.981             38.143
 Rotational               0.388              2.981             30.771
 Vibrational            218.147             37.115             37.768
 Vibration     1          0.260              1.976              4.695
 Vibration     2          0.261              1.968              4.155
 Vibration     3          0.262              1.957              3.686
 Vibration     4          0.265              1.939              3.226
 Vibration     5          0.266              1.933              3.099
 Vibration     6          0.271              1.892              2.553
 Vibration     7          0.273              1.877              2.410
 Vibration     8          0.277              1.847              2.184
 Vibration     9          0.284              1.795              1.878
 Vibration    10          0.293              1.735              1.620
 Vibration    11          0.328              1.506              1.026
 Vibration    12          0.337              1.449              0.928
 Vibration    13          0.352              1.367              0.804
 Vibration    14          0.364              1.296              0.712
 Vibration    15          0.367              1.282              0.695
 Vibration    16          0.378              1.224              0.629
 Vibration    17          0.408              1.079              0.489
 Vibration    18          0.414              1.049              0.464

 Optimization completed.
    -- Stationary point found.
 Normal termination of Gaussian 16 at Thu Aug 27 14:26:09 2020.
