 Gaussian 09, Revision A.02,
 Gaussian 09:  EM64L-G09RevA.02 11-Jun-2009

 ---------------------------------------------------
 # wB97XD/aug-cc-pVDZ opt=(TS,CalcFC,MaxStep=5) freq
 ---------------------------------------------------

 ----
 blah
 ----
 Symbolic Z-matrix:
 Charge =  1 Multiplicity = 1

 SCF Done:  E(RwB97XD) =  -652.129734925     A.U. after   15 cycles
 SCF Done:  E(RwB97XD) =  -652.130057561     A.U. after   11 cycles
 SCF Done:  E(RwB97XD) =  -652.130350184     A.U. after   11 cycles
 SCF Done:  E(RwB97XD) =  -652.130615712     A.U. after   11 cycles
 SCF Done:  E(RwB97XD) =  -652.130849928     A.U. after   11 cycles
 SCF Done:  E(RwB97XD) =  -652.131049539     A.U. after   11 cycles
 SCF Done:  E(RwB97XD) =  -652.131213434     A.U. after   11 cycles
 SCF Done:  E(RwB97XD) =  -652.131340132     A.U. after   11 cycles
 SCF Done:  E(RwB97XD) =  -652.131429219     A.U. after   11 cycles
 SCF Done:  E(RwB97XD) =  -652.131483474     A.U. after   11 cycles
 SCF Done:  E(RwB97XD) =  -652.131506756     A.U. after   11 cycles
 SCF Done:  E(RwB97XD) =  -652.131508553     A.U. after   10 cycles
 Optimization completed.
    -- Stationary point found.
 Normal termination of Gaussian 09 at Wed Oct 26 17:17:48 2022.

 ----------------------------------------------------------------------
 #N Geom=AllCheck Guess=TCheck SCRF=Check GenChk RwB97XD/Aug-CC-pVDZ Fr
 eq
 ----------------------------------------------------------------------

 blah
 ----
 Redundant internal coordinates taken from checkpoint file:
 /gscratch/scrubbed/gds001/Gau-13188.chk
 Charge =  1 Multiplicity = 1

                         Standard orientation:
 ---------------------------------------------------------------------
 Center     Atomic      Atomic             Coordinates (Angstroms)
 Number     Number       Type             X           Y           Z
 ---------------------------------------------------------------------
      1          7           0        2.360740    0.343356   -0.622786
      2          6           0        3.167441   -0.570388   -0.063855
      3          6           0        2.687600   -1.792628    0.394547
      4          6           0        1.315439   -2.040788    0.348231
      5          6           0        0.470114   -1.092066   -0.224092
      6          6           0        1.065841    0.047218   -0.747854
      7          6           0       -1.036487   -1.152786   -0.184233
      8          6           0       -1.760100   -0.978360   -1.543825
      9          6           0       -2.786552    0.149133   -1.315747
     10          6           0       -2.932401    0.192330    0.199333
     11          7           0       -1.553530   -0.039946    0.671738
     12          6           0       -1.472900   -0.352776    2.100935
     13          1           0        4.219103   -0.302926    0.030289
     14          1           0        3.375390   -2.517511    0.825525
     15          1           0        0.907796   -2.959158    0.772575
     16          1           0        0.452465    0.800252   -1.244553
     17          1           0       -1.341257   -2.106775    0.274861
     18          1           0       -1.060180   -0.742597   -2.352295
     19          1           0       -2.254450   -1.916959   -1.815181
     20          1           0       -2.397214    1.108954   -1.679373
     21          1           0       -3.739930   -0.036703   -1.819334
     22          1           0       -3.307373    1.147962    0.585702
     23          1           0       -3.598230   -0.610321    0.559409
     24          1           0       -2.043655   -1.261939    2.347808
     25          1           0       -1.880354    0.481947    2.683880
     26          1           0       -0.424739   -0.499940    2.388140
     27          8           0        1.863123    2.794090   -0.126706
     28          8           0       -0.402933    2.299156    0.562567
     29          1           0        1.933815    3.472984   -0.807132
     30          1           0       -0.739022    2.813007    1.302123
     31          1           0        2.296723    1.901340   -0.442016
     32          1           0        0.787923    2.585552    0.206851
     33          1           0       -0.826768    1.319654    0.572529
 ---------------------------------------------------------------------

 SCF Done:  E(RwB97XD) =  -652.131508553     A.U. after    2 cycles

 The electronic state is 1-A.
 Alpha  occ. eigenvalues --  -19.47085 -19.43654 -14.61057 -14.60978 -10.48015
 Alpha  occ. eigenvalues --  -10.47802 -10.47282 -10.45888 -10.45540 -10.45195
 Alpha  occ. eigenvalues --  -10.45150 -10.44688 -10.42351 -10.41907  -1.32529
 Alpha  occ. eigenvalues --   -1.27388  -1.20574  -1.18999  -1.06104  -1.02669
 Alpha  occ. eigenvalues --   -1.01551  -0.95771  -0.91099  -0.87657  -0.86896
 Alpha  occ. eigenvalues --   -0.83193  -0.82039  -0.81197  -0.80741  -0.78208
 Alpha  occ. eigenvalues --   -0.75058  -0.72955  -0.71849  -0.70640  -0.67549
 Alpha  occ. eigenvalues --   -0.67133  -0.67091  -0.65042  -0.64104  -0.63699
 Alpha  occ. eigenvalues --   -0.62628  -0.61486  -0.60815  -0.60305  -0.58289
 Alpha  occ. eigenvalues --   -0.57830  -0.57410  -0.56127  -0.55336  -0.53730
 Alpha  occ. eigenvalues --   -0.51477  -0.50677  -0.48037  -0.47326
 Alpha virt. eigenvalues --   -0.11173  -0.09497  -0.07791  -0.05854  -0.05350
 Alpha virt. eigenvalues --   -0.04787  -0.03750  -0.03290  -0.02998  -0.02912
 Alpha virt. eigenvalues --   -0.02467  -0.01551  -0.01196  -0.00997  -0.00557

 Mulliken atomic charges:
              1
     1  N   -0.528565
     2  C    0.198767
     3  C    0.671126
     4  C    1.025480
     5  C    1.055791
     6  C    0.671836
     7  C    0.892721
     8  C    1.083609
     9  C    0.799857
    10  C    1.308583
    11  N   -1.623378
    12  C    1.092181
    13  H   -0.566405
    14  H   -0.578627
    15  H   -0.830888
    16  H   -1.064872
    17  H   -0.776700
    18  H   -0.463961
    19  H   -0.397122
    20  H   -0.246507
    21  H   -0.324839
    22  H   -0.491078
    23  H   -0.437711
    24  H   -0.242509
    25  H   -0.215023
    26  H   -0.115529
    27  O   -0.437819
    28  O   -0.636334
    29  H    0.220992
    30  H    0.234520
    31  H    0.444550
    32  H    0.589176
    33  H    0.688678
 Sum of Mulliken atomic charges =   1.00000

 Dipole moment (field-independent basis, Debye):
    X=              0.4105    Y=              2.3381    Z=              1.0559  Tot=              2.5981
 Quadrupole moment (field-independent basis, Debye-Ang):
   XX=            -56.2754   YY=            -55.8155   ZZ=            -76.2473
   XY=              1.7704   XZ=             -2.2555   YZ=             -3.3072

  Exact polarizability: 168.223  -2.023 142.087   3.409  -8.700 116.637
 Approx polarizability: 173.669   1.751 165.332   3.462 -13.967 135.357

 ******    1 imaginary frequencies (negative Signs) ******

                     1                      2                      3
                     A                      A                      A
 Frequencies --  -560.4761                48.5088                64.1341
 Red. masses --     1.4078                 3.1115                 3.7668
 Frc consts  --     0.2606                 0.0043                 0.0091
 IR Inten    --  1588.4862                 0.3775                 0.6185

                     4                      5                      6
                     A                      A                      A
 Frequencies --    92.4771               102.0714               129.1013
 Red. masses --     4.6822                 3.2641                 3.3177
 Frc consts  --     0.0236                 0.0200                 0.0326
 IR Inten    --     1.5284                 0.8039                 2.1626

                     7                      8                      9
                     A                      A                      A
 Frequencies --   172.2110               209.4435               228.3013
 Red. masses --     4.2549                 2.8878                 1.8620
 Frc consts  --     0.0743                 0.0746                 0.0572
 IR Inten    --    18.3006                13.9914                 4.3827

                    10                     11                     12
                     A                      A                      A
 Frequencies --   239.2785               264.1302               272.4738
 Red. masses --     4.6719                 1.1383                 1.9344
 Frc consts  --     0.1576                 0.0468                 0.0846
 IR Inten    --    38.4534                 2.7129                26.6044

                    13                     14                     15
                     A                      A                      A
 Frequencies --   303.0168               329.4822               353.5983
 Red. masses --     1.9352                 3.7754                 2.4937
 Frc consts  --     0.1047                 0.2415                 0.1837
 IR Inten    --    62.0692                16.5015                72.4052

                    16                     17                     18
                     A                      A                      A
 Frequencies --   407.2214               427.4206               446.7358
 Red. masses --     2.9419                 2.2647                 1.4928
 Frc consts  --     0.2874                 0.2438                 0.1755
 IR Inten    --     8.4407                96.4888               104.4985

                    19                     20                     21
                     A                      A                      A
 Frequencies --   504.8615               551.1390               582.5372
 Red. masses --     2.4832                 3.9101                 2.8474
 Frc consts  --     0.3729                 0.6998                 0.5693
 IR Inten    --   151.0757                10.3557                 2.2675

                    22                     23                     24
                     A                      A                      A
 Frequencies --   632.9346               636.4319               653.4278
 Red. masses --     2.8139                 2.8170                 3.2082
 Frc consts  --     0.6642                 0.6723                 0.8071
 IR Inten    --    42.5924                16.8384                 2.3561

                    25                     26                     27
                     A                      A                      A
 Frequencies --   678.1161               709.3314               754.5939
 Red. masses --     1.5404                 2.4474                 2.0417
 Frc consts  --     0.4173                 0.7255                 0.6850
 IR Inten    --    34.9740               288.8413                56.6295

                    28                     29                     30
                     A                      A                      A
 Frequencies --   792.9285               829.3961               846.8862
 Red. masses --     2.0277                 1.4420                 1.4171
 Frc consts  --     0.7512                 0.5844                 0.5988
 IR Inten    --    21.4312               167.0895               294.2903

                    31                     32                     33
                     A                      A                      A
 Frequencies --   863.3398               924.1657               930.9639
 Red. masses --     1.9319                 1.6996                 3.1677
 Frc consts  --     0.8484                 0.8552                 1.6175
 IR Inten    --    22.3814                 3.7648                50.1765

                    34                     35                     36
                     A                      A                      A
 Frequencies --   955.8004               983.8588               991.4108
 Red. masses --     2.3484                 1.7700                 1.4159
 Frc consts  --     1.2641                 1.0094                 0.8200
 IR Inten    --    28.8378                 0.3454                 8.0431

                    37                     38                     39
                     A                      A                      A
 Frequencies --  1011.4725              1034.6469              1055.2539
 Red. masses --     1.4184                 1.3801                 2.2582
 Frc consts  --     0.8550                 0.8705                 1.4816
 IR Inten    --    30.3757                16.5092                16.8742

                    40                     41                     42
                     A                      A                      A
 Frequencies --  1056.6070              1071.1110              1094.6736
 Red. masses --     3.3355                 2.4110                 1.9211
 Frc consts  --     2.1940                 1.6298                 1.3564
 IR Inten    --     2.4191                17.0149                75.1373

                    43                     44                     45
                     A                      A                      A
 Frequencies --  1097.8146              1129.5160              1153.3304
 Red. masses --     1.9531                 1.2725                 1.4172
 Frc consts  --     1.3869                 0.9565                 1.1107
 IR Inten    --     6.7605                 6.8218                27.2557

                    46                     47                     48
                     A                      A                      A
 Frequencies --  1167.9131              1177.6736              1201.5285
 Red. masses --     1.7638                 1.1836                 1.3790
 Frc consts  --     1.4175                 0.9672                 1.1730
 IR Inten    --     5.6390               188.8053                81.5750

                    49                     50                     51
                     A                      A                      A
 Frequencies --  1212.6697              1238.7374              1250.1279
 Red. masses --     1.5932                 1.3891                 1.6441
 Frc consts  --     1.3804                 1.2559                 1.5139
 IR Inten    --    18.5674                14.4840                26.1090

                    52                     53                     54
                     A                      A                      A
 Frequencies --  1258.6346              1269.2049              1274.8190
 Red. masses --     1.6133                 1.5533                 1.3946
 Frc consts  --     1.5058                 1.4742                 1.3353
 IR Inten    --    17.0695                84.1758                20.7158

                    55                     56                     57
                     A                      A                      A
 Frequencies --  1317.6184              1325.2336              1343.6577
 Red. masses --     1.4461                 3.0011                 1.3155
 Frc consts  --     1.4792                 3.1054                 1.3993
 IR Inten    --     0.2555                 2.4902                 5.9392

                    58                     59                     60
                     A                      A                      A
 Frequencies --  1361.2894              1366.0306              1380.3437
 Red. masses --     1.3971                 1.3619                 1.4489
 Frc consts  --     1.5253                 1.4973                 1.6265
 IR Inten    --     0.7737                25.5172                13.1878

                    61                     62                     63
                     A                      A                      A
 Frequencies --  1385.4029              1396.2826              1443.8266
 Red. masses --     1.2091                 1.5935                 1.1796
 Frc consts  --     1.3672                 1.8304                 1.4489
 IR Inten    --    30.1916                 8.1574                11.5159

                    64                     65                     66
                     A                      A                      A
 Frequencies --  1482.4328              1486.3842              1491.4535
 Red. masses --     1.8151                 1.1439                 1.0782
 Frc consts  --     2.3502                 1.4890                 1.4131
 IR Inten    --    25.4002                25.3400                 7.7188

                    67                     68                     69
                     A                      A                      A
 Frequencies --  1493.6110              1504.8357              1517.9666
 Red. masses --     1.1140                 1.0916                 1.1486
 Frc consts  --     1.4642                 1.4564                 1.5594
 IR Inten    --    12.8547                14.2482                10.5463

                    70                     71                     72
                     A                      A                      A
 Frequencies --  1534.7833              1618.3074              1663.2025
 Red. masses --     2.2815                 1.0702                 5.8608
 Frc consts  --     3.1664                 1.6514                 9.5521
 IR Inten    --    10.7456               381.4978                21.1301

                    73                     74                     75
                     A                      A                      A
 Frequencies --  1693.8867              1745.1068              1783.0717
 Red. masses --     5.3383                 1.0624                 1.0776
 Frc consts  --     9.0244                 1.9063                 2.0185
 IR Inten    --    20.5276               188.3781               402.0591

                    76                     77                     78
                     A                      A                      A
 Frequencies --  2022.4399              2432.7185              3027.9613
 Red. masses --     1.1104                 1.0857                 1.0673
 Frc consts  --     2.6760                 3.7856                 5.7657
 IR Inten    --  1424.8590              2450.6836                18.4783

                    79                     80                     81
                     A                      A                      A
 Frequencies --  3033.5869              3040.0627              3085.7370
 Red. masses --     1.0425                 1.0845                 1.0677
 Frc consts  --     5.6526                 5.9056                 5.9898
 IR Inten    --    20.1436                19.0813                13.6525

                    82                     83                     84
                     A                      A                      A
 Frequencies --  3111.8339              3121.9174              3124.2664
 Red. masses --     1.0630                 1.0979                 1.0971
 Frc consts  --     6.0646                 6.3048                 6.3093
 IR Inten    --    15.5285                11.4592                21.4324

                    85                     86                     87
                     A                      A                      A
 Frequencies --  3151.4375              3155.4008              3169.1420
 Red. masses --     1.1050                 1.1033                 1.1040
 Frc consts  --     6.4662                 6.4722                 6.5328
 IR Inten    --    12.0666                 2.4034                19.6109

                    88                     89                     90
                     A                      A                      A
 Frequencies --  3204.7358              3208.5380              3227.8569
 Red. masses --     1.0909                 1.0918                 1.0918
 Frc consts  --     6.6009                 6.6221                 6.7021
 IR Inten    --     9.0129                 1.1549                 0.5380

                    91                     92                     93
                     A                      A                      A
 Frequencies --  3243.1418              3882.9928              3913.9617
 Red. masses --     1.0996                 1.0661                 1.0661
 Frc consts  --     6.8142                 9.4704                 9.6226
 IR Inten    --     0.4509               182.4475               109.0232

 - Thermochemistry -
 -------------------
 Temperature   298.150 Kelvin.  Pressure   1.00000 Atm.
 Atom     1 has atomic number  7 and mass  14.00307

 Molecular mass:   199.14465 amu.
 Principal axes and moments of inertia in atomic units:
                           1         2         3
     Eigenvalues --  2073.162863423.094434274.55845
           X            0.99996   0.00908   0.00206
           Y           -0.00904   0.99984  -0.01538
           Z           -0.00220   0.01536   0.99988
 This molecule is an asymmetric top.
 Rotational symmetry number  1.
 Warning -- assumption of classical behavior for rotation
           may cause significant error
 Rotational temperatures (Kelvin)      0.04178     0.02530     0.02026
 Rotational constants (GHZ):           0.87053     0.52723     0.42221
    1 imaginary frequencies ignored.
 Zero-point vibrational energy     754603.9 (Joules/Mol)
                                  180.35466 (Kcal/Mol)
 Warning -- explicit consideration of  20 degrees of freedom as
           vibrations may cause significant error
 Vibrational temperatures:     69.79    92.27   133.05   146.86   185.75
          (Kelvin)            247.77   301.34   328.47   344.27   380.02
                              392.03   435.97   474.05   508.75   585.90
                              614.96   642.75   726.38   792.97   838.14
                              910.65   915.68   940.14   975.66  1020.57
                             1085.69  1140.85  1193.31  1218.48  1242.15
                             1329.67  1339.45  1375.18  1415.55  1426.42
                             1455.28  1488.62  1518.27  1520.22  1541.09
                             1574.99  1579.51  1625.12  1659.38  1680.36
                             1694.41  1728.73  1744.76  1782.26  1798.65
                             1810.89  1826.10  1834.18  1895.76  1906.71
                             1933.22  1958.59  1965.41  1986.00  1993.28
                             2008.94  2077.34  2132.89  2138.57  2145.87
                             2148.97  2165.12  2184.01  2208.21  2328.38
                             2392.97  2437.12  2510.82  2565.44  2909.84
                             3500.13  4356.56  4364.65  4373.97  4439.68
                             4477.23  4491.74  4495.12  4534.21  4539.91
                             4559.68  4610.89  4616.36  4644.16  4666.15
                             5586.75  5631.31

 Zero-point correction=                           0.287413 (Hartree/Particle)
 Thermal correction to Energy=                    0.301477
 Thermal correction to Enthalpy=                  0.302421
 Thermal correction to Gibbs Free Energy=         0.246936
 Sum of electronic and zero-point Energies=           -651.844095
 Sum of electronic and thermal Energies=              -651.830031
 Sum of electronic and thermal Enthalpies=            -651.829087
 Sum of electronic and thermal Free Energies=         -651.884572

                     E (Thermal)             CV                S
                      KCal/Mol        Cal/Mol-Kelvin    Cal/Mol-Kelvin
 Total                  189.180             54.992            116.778
 Electronic               0.000              0.000              0.000
 Translational            0.889              2.981             41.771
 Rotational               0.889              2.981             31.784
 Vibrational            187.402             49.030             43.223
 Vibration     1          0.595              1.978              4.877
 Vibration     2          0.597              1.971              4.326
 Vibration     3          0.602              1.955              3.607
 Vibration     4          0.604              1.948              3.414
 Vibration     5          0.612              1.924              2.959
 Vibration     6          0.626              1.877              2.411
 Vibration     7          0.642              1.826              2.049
 Vibration     8          0.651              1.798              1.892
 Vibration     9          0.657              1.780              1.808
 Vibration    10          0.671              1.739              1.634
 Vibration    11          0.675              1.724              1.580
 Vibration    12          0.694              1.668              1.400
 Vibration    13          0.712              1.617              1.263
 Vibration    14          0.730              1.568              1.150
 Vibration    15          0.772              1.455              0.936
 Vibration    16          0.789              1.411              0.867
 Vibration    17          0.806              1.368              0.806
 Vibration    18          0.860              1.239              0.646
 Vibration    19          0.906              1.137              0.542
 Vibration    20          0.939              1.069              0.481

 Optimization completed.
    -- Stationary point found.
 Normal termination of Gaussian 09 at Wed Oct 26 18:31:35 2022.
