 Gaussian 16, Revision A.03,
 Gaussian 16:  ES64L-G16RevA.03 25-Dec-2016

 ---------------------------------------------
 # wB97XD/aug-cc-pVDZ opt freq temperature=180
 ---------------------------------------------

 --------
 Nicotine
 --------
 Symbolic Z-matrix:
 Charge =  1 Multiplicity = 1

 SCF Done:  E(RwB97XD) =  -652.160981748     A.U. after   14 cycles
 SCF Done:  E(RwB97XD) =  -652.160977476     A.U. after   10 cycles
 SCF Done:  E(RwB97XD) =  -652.160981545     A.U. after   10 cycles
 SCF Done:  E(RwB97XD) =  -652.160981466     A.U. after    8 cycles
 SCF Done:  E(RwB97XD) =  -652.160981732     A.U. after    8 cycles
 SCF Done:  E(RwB97XD) =  -652.160981675     A.U. after    8 cycles
 SCF Done:  E(RwB97XD) =  -652.160981749     A.U. after    8 cycles
 Optimization completed.
    -- Stationary point found.
 Normal termination of Gaussian 16 at Sun Nov 14 16:19:02 2021.

 ----------------------------------------------------------------------
 #N Geom=AllCheck Guess=TCheck SCRF=Check GenChk RwB97XD/Aug-CC-pVDZ Fr
 eq
 ----------------------------------------------------------------------

 Structure from the checkpoint file:  "/gscratch/scrubbed/gds001/Gau-26877.chk"
 --------
 Nicotine
 --------
 Charge =  1 Multiplicity = 1

                         Standard orientation:
 ---------------------------------------------------------------------
 Center     Atomic      Atomic             Coordinates (Angstroms)
 Number     Number       Type             X           Y           Z
 ---------------------------------------------------------------------
      1          6           0        1.172915    0.121486   -0.658481
      2          6           0        0.522205   -1.039773   -0.243176
      3          6           0        1.307126   -2.071745    0.271133
      4          6           0        2.684958   -1.894367    0.353582
      5          6           0        3.226600   -0.674765   -0.047680
      6          7           0        2.484739    0.322251   -0.541982
      7          6           0       -0.979752   -1.123957   -0.304442
      8          6           0       -1.656716   -0.781916   -1.651907
      9          6           0       -2.824463    0.171892   -1.314606
     10          6           0       -3.007755    0.031120    0.191314
     11          7           0       -1.610690   -0.157521    0.681529
     12          8           0       -0.624994    2.398791    0.632286
     13          1           0       -3.578114   -0.866265    0.462950
     14          1           0       -3.743356   -0.075338   -1.853655
     15          1           0       -2.558737    1.207259   -1.557872
     16          1           0       -0.948351   -0.319717   -2.345309
     17          1           0       -2.009044   -1.706061   -2.120872
     18          1           0       -3.447805    0.902893    0.685228
     19          1           0       -1.301577   -2.117266    0.033981
     20          1           0        0.607023    0.949376   -1.090281
     21          1           0        4.297508   -0.487411    0.033784
     22          1           0        3.331716   -2.680277    0.738756
     23          1           0        0.850539   -3.005436    0.603095
     24          6           0       -1.496831   -0.574810    2.095471
     25          1           0       -1.141989    0.778314    0.605014
     26          1           0       -1.015033    3.117539    1.134816
     27          1           0        0.284618    2.695054    0.395555
     28          8           0        1.903238    3.027458   -0.056530
     29          1           0        2.447936    2.265218   -0.326598
     30          1           0        2.295671    3.814909   -0.439093
     31          1           0       -1.959628    0.188424    2.727859
     32          1           0       -0.437522   -0.669468    2.351750
     33          1           0       -2.007875   -1.533840    2.230762
 ---------------------------------------------------------------------

 SCF Done:  E(RwB97XD) =  -652.160981749     A.U. after    1 cycles

 The electronic state is 1-A.
 Alpha  occ. eigenvalues --  -19.40484 -19.38838 -14.69624 -14.58768 -10.50438
 Alpha  occ. eigenvalues --  -10.49089 -10.48792 -10.47053 -10.46551 -10.45641
 Alpha  occ. eigenvalues --  -10.45528 -10.44452 -10.44302 -10.43858  -1.26322
 Alpha  occ. eigenvalues --   -1.24714  -1.22842  -1.18579  -1.06945  -1.05155
 Alpha  occ. eigenvalues --   -1.01818  -0.97341  -0.95046  -0.89457  -0.86325
 Alpha  occ. eigenvalues --   -0.85959  -0.83636  -0.78554  -0.76246  -0.75535
 Alpha  occ. eigenvalues --   -0.74330  -0.73442  -0.72301  -0.70851  -0.69140
 Alpha  occ. eigenvalues --   -0.67414  -0.66108  -0.65705  -0.63853  -0.63223
 Alpha  occ. eigenvalues --   -0.62724  -0.62349  -0.61688  -0.60525  -0.59666
 Alpha  occ. eigenvalues --   -0.58314  -0.57786  -0.57104  -0.55907  -0.54219
 Alpha  occ. eigenvalues --   -0.52130  -0.50302  -0.48182  -0.47150
 Alpha virt. eigenvalues --   -0.09989  -0.09229  -0.07245  -0.06160  -0.05277
 Alpha virt. eigenvalues --   -0.05068  -0.03576  -0.03462  -0.03203  -0.02997
 Alpha virt. eigenvalues --   -0.02638  -0.01905  -0.01301  -0.01194  -0.00550

 Mulliken charges:
               1
     1  C    0.500798
     2  C    1.326231
     3  C    1.076173
     4  C    0.625439
     5  C    0.184845
     6  N   -0.348278
     7  C    0.734886
     8  C    1.165532
     9  C    0.711328
    10  C    1.289695
    11  N   -0.852589
    12  O   -0.458942
    13  H   -0.395799
    14  H   -0.305025
    15  H   -0.272327
    16  H   -0.414748
    17  H   -0.375666
    18  H   -0.445219
    19  H   -0.842860
    20  H   -1.108315
    21  H   -0.542383
    22  H   -0.581126
    23  H   -0.867899
    24  C    1.041417
    25  H    0.192243
    26  H    0.186680
    27  H    0.241610
    28  O   -0.383514
    29  H    0.190814
    30  H    0.185678
    31  H   -0.152430
    32  H   -0.120364
    33  H   -0.185886
 Sum of Mulliken charges =   1.00000

 Dipole moment (field-independent basis, Debye):
    X=             -3.6752    Y=             -0.7100    Z=              1.8485  Tot=              4.1748
 Quadrupole moment (field-independent basis, Debye-Ang):
   XX=            -50.2449   YY=            -59.0176   ZZ=            -75.3861
   XY=              0.3213   XZ=             -2.5393   YZ=             -2.4216

  Exact polarizability: 167.136  -3.824 139.245   3.592  -8.241 114.750
 Approx polarizability: 171.949  -0.104 161.440   3.317 -12.352 131.620

                      1                      2                      3
                      A                      A                      A
 Frequencies --     22.0283                43.6969                63.5855
 Red. masses --      3.1689                 4.3273                 4.0171
 Frc consts  --      0.0009                 0.0049                 0.0096
 IR Inten    --      0.4301                 0.8890                 0.2643

                      4                      5                      6
                      A                      A                      A
 Frequencies --     65.9111               102.4404               117.9404
 Red. masses --      3.8637                 3.2445                 3.7739
 Frc consts  --      0.0099                 0.0201                 0.0309
 IR Inten    --      0.7947                23.6155                14.9757

                      7                      8                      9
                      A                      A                      A
 Frequencies --    136.9665               180.3630               188.9666
 Red. masses --      1.3758                 3.5468                 2.0609
 Frc consts  --      0.0152                 0.0680                 0.0434
 IR Inten    --     28.5259                13.3576                23.2752

                     10                     11                     12
                      A                      A                      A
 Frequencies --    196.3833               209.6824               215.4553
 Red. masses --      2.6335                 1.6468                 2.1175
 Frc consts  --      0.0598                 0.0427                 0.0579
 IR Inten    --     21.9437                79.9141                47.9581

                     13                     14                     15
                      A                      A                      A
 Frequencies --    236.8389               266.4218               298.0612
 Red. masses --      1.0850                 3.3153                 4.7079
 Frc consts  --      0.0359                 0.1386                 0.2464
 IR Inten    --      2.1903                 1.4781                 8.2094

                     16                     17                     18
                      A                      A                      A
 Frequencies --    331.0767               384.9794               417.0330
 Red. masses --      4.1517                 2.9715                 2.6666
 Frc consts  --      0.2681                 0.2595                 0.2732
 IR Inten    --      0.9982                 1.6882                13.9089

                     19                     20                     21
                      A                      A                      A
 Frequencies --    436.2887               465.9803               541.2484
 Red. masses --      2.6762                 1.1558                 3.7860
 Frc consts  --      0.3001                 0.1479                 0.6535
 IR Inten    --      5.8649                67.5617                 5.8006

                     22                     23                     24
                      A                      A                      A
 Frequencies --    569.8169               585.2658               626.5456
 Red. masses --      2.9673                 1.1098                 2.9810
 Frc consts  --      0.5677                 0.2240                 0.6895
 IR Inten    --      6.2618                60.1129                 5.4812

                     25                     26                     27
                      A                      A                      A
 Frequencies --    644.9930               654.9280               670.9321
 Red. masses --      3.8601                 3.1163                 1.2696
 Frc consts  --      0.9461                 0.7876                 0.3367
 IR Inten    --      4.9154                19.5945                85.1514

                     28                     29                     30
                      A                      A                      A
 Frequencies --    742.2790               774.8577               789.7309
 Red. masses --      1.9656                 1.1478                 1.6840
 Frc consts  --      0.6381                 0.4060                 0.6188
 IR Inten    --     31.7608                70.8609                22.0678

                     31                     32                     33
                      A                      A                      A
 Frequencies --    832.8241               839.6089               916.2902
 Red. masses --      1.6707                 1.9732                 3.4293
 Frc consts  --      0.6827                 0.8195                 1.6964
 IR Inten    --     20.8002                 4.3483                 3.6796

                     34                     35                     36
                      A                      A                      A
 Frequencies --    924.1216               946.1845               977.9785
 Red. masses --      1.7642                 2.4492                 1.4339
 Frc consts  --      0.8877                 1.2919                 0.8080
 IR Inten    --      6.8770                 5.0065                 2.4038

                     37                     38                     39
                      A                      A                      A
 Frequencies --    982.2905               999.1444              1029.6860
 Red. masses --      1.7371                 1.5192                 1.4374
 Frc consts  --      0.9875                 0.8935                 0.8979
 IR Inten    --      4.3066                 4.4606                 0.4054

                     40                     41                     42
                      A                      A                      A
 Frequencies --   1043.5920              1050.5520              1066.4611
 Red. masses --      2.0097                 4.7611                 2.2334
 Frc consts  --      1.2896                 3.0960                 1.4966
 IR Inten    --     20.2275                 7.9258                 1.6863

                     43                     44                     45
                      A                      A                      A
 Frequencies --   1086.3002              1092.5514              1125.2474
 Red. masses --      2.0070                 2.2641                 1.3416
 Frc consts  --      1.3954                 1.5923                 1.0008
 IR Inten    --      1.8878                 1.9395                 4.1865

                     46                     47                     48
                      A                      A                      A
 Frequencies --   1149.1364              1153.0091              1207.5660
 Red. masses --      2.4768                 1.3865                 1.7455
 Frc consts  --      1.9270                 1.0860                 1.4996
 IR Inten    --     15.8315                 6.5815                 7.0391

                     49                     50                     51
                      A                      A                      A
 Frequencies --   1211.7447              1241.7793              1249.9549
 Red. masses --      1.4483                 1.5389                 1.4706
 Frc consts  --      1.2529                 1.3982                 1.3538
 IR Inten    --      3.2239                 7.9895                 5.4683

                     52                     53                     54
                      A                      A                      A
 Frequencies --   1260.4952              1268.1435              1310.7996
 Red. masses --      1.5686                 1.3051                 2.8608
 Frc consts  --      1.4684                 1.2366                 2.8961
 IR Inten    --      2.0424                 1.4585                 0.3987

                     55                     56                     57
                      A                      A                      A
 Frequencies --   1318.4132              1349.4308              1367.5946
 Red. masses --      1.5760                 1.3232                 1.3282
 Frc consts  --      1.6140                 1.4197                 1.4636
 IR Inten    --      0.5936                 1.1967                 2.0680

                     58                     59                     60
                      A                      A                      A
 Frequencies --   1372.2547              1380.2261              1399.1990
 Red. masses --      1.4336                 1.4061                 1.5693
 Frc consts  --      1.5905                 1.5783                 1.8101
 IR Inten    --      5.4853                 0.3092                 2.4937

                     61                     62                     63
                      A                      A                      A
 Frequencies --   1453.2787              1479.6315              1481.1459
 Red. masses --      1.1773                 1.0688                 2.1057
 Frc consts  --      1.4650                 1.3786                 2.7217
 IR Inten    --      2.5655                 3.3272                32.6580

                     64                     65                     66
                      A                      A                      A
 Frequencies --   1485.1426              1489.1719              1501.2816
 Red. masses --      1.0792                 1.0899                 1.0950
 Frc consts  --      1.4024                 1.4240                 1.4540
 IR Inten    --      2.3309                 4.3777                20.8182

                     67                     68                     69
                      A                      A                      A
 Frequencies --   1514.4644              1531.5600              1534.4303
 Red. masses --      1.1640                 1.6743                 1.3126
 Frc consts  --      1.5729                 2.3140                 1.8209
 IR Inten    --     23.5289                21.8129                11.2391

                     70                     71                     72
                      A                      A                      A
 Frequencies --   1553.3793              1634.9317              1662.6598
 Red. masses --      1.1861                 1.1059                 5.3246
 Frc consts  --      1.6863                 1.7416                 8.6725
 IR Inten    --     40.5361                84.6060                 9.5537

                     73                     74                     75
                      A                      A                      A
 Frequencies --   1683.9210              1701.6398              3045.8435
 Red. masses --      5.7311                 1.0844                 1.0825
 Frc consts  --      9.5749                 1.8500                 5.9171
 IR Inten    --     12.7707                84.7072               769.3276

                     76                     77                     78
                      A                      A                      A
 Frequencies --   3082.3400              3093.5764              3100.8509
 Red. masses --      1.0369                 1.0715                 1.0687
 Frc consts  --      5.8042                 6.0417                 6.0541
 IR Inten    --     23.7874                10.8067                17.2273

                     79                     80                     81
                      A                      A                      A
 Frequencies --   3101.2364              3115.7228              3160.8331
 Red. masses --      1.0733                 1.0637                 1.1041
 Frc consts  --      6.0822                 6.0840                 6.4992
 IR Inten    --     22.7818                 5.0332                 0.9251

                     82                     83                     84
                      A                      A                      A
 Frequencies --   3168.6627              3176.8189              3185.3956
 Red. masses --      1.1066                 1.1066                 1.1071
 Frc consts  --      6.5461                 6.5798                 6.6187
 IR Inten    --      3.5672                 6.9641                 0.4124

                     85                     86                     87
                      A                      A                      A
 Frequencies --   3186.1096              3192.5480              3200.1852
 Red. masses --      1.0917                 1.1070                 1.0917
 Frc consts  --      6.5297                 6.6479                 6.5875
 IR Inten    --      4.3980                 0.9435                 2.8309

                     88                     89                     90
                      A                      A                      A
 Frequencies --   3212.4896              3238.9654              3435.3947
 Red. masses --      1.0924                 1.0984                 1.0639
 Frc consts  --      6.6422                 6.7890                 7.3980
 IR Inten    --      3.5916                 1.0406               696.7830

                     91                     92                     93
                      A                      A                      A
 Frequencies --   3627.3700              3939.5576              3954.4167
 Red. masses --      1.0602                 1.0672                 1.0703
 Frc consts  --      8.2190                 9.7583                 9.8614
 IR Inten    --    523.7152                94.7906               164.0352

 - Thermochemistry -
 -------------------
 Temperature   180.000 Kelvin.  Pressure   1.00000 Atm.
 Atom     1 has atomic number  6 and mass  12.00000

 Molecular mass:   199.14465 amu.
 Principal axes and moments of inertia in atomic units:
                           1         2         3
     Eigenvalues --  2217.552073539.004714527.83010
           X            0.99992   0.01232   0.00190
           Y           -0.01229   0.99983  -0.01375
           Z           -0.00207   0.01372   0.99990
 This molecule is an asymmetric top.
 Rotational symmetry number  1.
 Warning -- assumption of classical behavior for rotation
           may cause significant error
 Rotational temperatures (Kelvin)      0.03906     0.02447     0.01913
 Rotational constants (GHZ):           0.81384     0.50996     0.39859
 Zero-point vibrational energy     771939.7 (Joules/Mol)
                                  184.49801 (Kcal/Mol)
 Warning -- explicit consideration of  16 degrees of freedom as
           vibrations may cause significant error
 Vibrational temperatures:     31.69    62.87    91.49    94.83   147.39
          (Kelvin)            169.69   197.06   259.50   271.88   282.55
                              301.69   309.99   340.76   383.32   428.84
                              476.35   553.90   600.02   627.72   670.44
                              778.74   819.84   842.07   901.46   928.00
                              942.30   965.32  1067.97  1114.85  1136.25
                             1198.25  1208.01  1318.34  1329.60  1361.35
                             1407.09  1413.30  1437.55  1481.49  1501.50
                             1511.51  1534.40  1562.94  1571.94  1618.98
                             1653.35  1658.92  1737.42  1743.43  1786.64
                             1798.41  1813.57  1824.58  1885.95  1896.90
                             1941.53  1967.66  1974.37  1985.84  2013.14
                             2090.94  2128.86  2131.04  2136.79  2142.59
                             2160.01  2178.98  2203.57  2207.70  2234.97
                             2352.30  2392.20  2422.79  2448.28  4382.29
                             4434.80  4450.97  4461.43  4461.99  4482.83
                             4547.73  4559.00  4570.73  4583.07  4584.10
                             4593.36  4604.35  4622.06  4660.15  4942.77
                             5218.98  5668.14  5689.52

 Zero-point correction=                           0.294016 (Hartree/Particle)
 Thermal correction to Energy=                    0.300873
 Thermal correction to Enthalpy=                  0.301443
 Thermal correction to Gibbs Free Energy=         0.271648
 Sum of electronic and zero-point Energies=           -651.866965
 Sum of electronic and thermal Energies=              -651.860109
 Sum of electronic and thermal Enthalpies=            -651.859539
 Sum of electronic and thermal Free Energies=         -651.889334

                     E (Thermal)             CV                S
                      KCal/Mol        Cal/Mol-Kelvin    Cal/Mol-Kelvin
 Total                  188.801             39.934            103.871
 Electronic               0.000              0.000              0.000
 Translational            0.537              2.981             39.264
 Rotational               0.537              2.981             30.437
 Vibrational            187.728             33.972             34.170
 Vibration     1          0.359              1.982              5.441
 Vibration     2          0.361              1.967              4.088
 Vibration     3          0.365              1.945              3.353
 Vibration     4          0.366              1.942              3.284
 Vibration     5          0.377              1.880              2.439
 Vibration     6          0.384              1.846              2.176
 Vibration     7          0.393              1.800              1.904
 Vibration     8          0.418              1.676              1.424
 Vibration     9          0.423              1.649              1.346
 Vibration    10          0.428              1.625              1.283
 Vibration    11          0.438              1.581              1.178
 Vibration    12          0.442              1.561              1.136
 Vibration    13          0.459              1.487              0.991
 Vibration    14          0.484              1.380              0.823
 Vibration    15          0.513              1.264              0.674
 Vibration    16          0.546              1.143              0.548

 Optimization completed.
    -- Stationary point found.
 Normal termination of Gaussian 16 at Sun Nov 14 16:58:42 2021.
