 Gaussian 16, Revision A.03,
 Gaussian 16:  ES64L-G16RevA.03 25-Dec-2016

 ---------------------------------------------
 # wB97XD/aug-cc-pVDZ opt freq temperature=180
 ---------------------------------------------

 --------
 Nicotine
 --------
 Symbolic Z-matrix:
 Charge =  1 Multiplicity = 1

 SCF Done:  E(RwB97XD) =  -652.154811607     A.U. after   15 cycles
 Optimization completed.
    -- Stationary point found.
 Normal termination of Gaussian 16 at Sun Nov 14 13:29:17 2021.

 ----------------------------------------------------------------------
 #N Geom=AllCheck Guess=TCheck SCRF=Check GenChk RwB97XD/Aug-CC-pVDZ Fr
 eq
 ----------------------------------------------------------------------

 Structure from the checkpoint file:  "/gscratch/scrubbed/gds001/Gau-2778.chk"
 --------
 Nicotine
 --------
 Charge =  1 Multiplicity = 1

                         Standard orientation:
 ---------------------------------------------------------------------
 Center     Atomic      Atomic             Coordinates (Angstroms)
 Number     Number       Type             X           Y           Z
 ---------------------------------------------------------------------
      1          6           0        1.073410    0.124871   -0.457656
      2          6           0        0.425402   -1.067476   -0.171801
      3          6           0        1.221706   -2.154610    0.188541
      4          6           0        2.612431   -2.025917    0.263477
      5          6           0        3.189945   -0.796785    0.009755
      6          7           0        2.400930    0.233461   -0.340618
      7          6           0       -1.083702   -1.099389   -0.214816
      8          6           0       -1.697866   -0.808545   -1.607619
      9          6           0       -2.865472    0.164521   -1.329273
     10          6           0       -3.026530    0.116016    0.186728
     11          7           0       -1.648926   -0.061544    0.666062
     12          8           0       -0.450738    2.556762    0.557138
     13          1           0       -3.462478    1.026765    0.615005
     14          1           0       -3.783365   -0.121693   -1.851743
     15          1           0       -2.601408    1.180406   -1.646028
     16          1           0       -2.038028   -1.742727   -2.066570
     17          1           0       -0.960830   -0.368278   -2.289175
     18          1           0       -3.657182   -0.739756    0.492117
     19          1           0       -1.413949   -2.097219    0.129485
     20          1           0        0.552216    1.027761   -0.760581
     21          1           0        4.255975   -0.599408    0.085328
     22          1           0        3.241824   -2.867472    0.542906
     23          1           0        0.755668   -3.111654    0.424952
     24          6           0       -1.565971   -0.404673    2.081725
     25          1           0        2.755301    1.200663   -0.453868
     26          1           0       -0.912812    1.690115    0.626716
     27          1           0       -1.041425    3.220006    0.920534
     28          8           0        2.215577    2.883500   -0.270244
     29          1           0        1.311620    2.986520    0.080505
     30          1           0        2.541396    3.758017   -0.491178
     31          1           0       -2.026443    0.390741    2.679093
     32          1           0       -0.515835   -0.491486    2.388438
     33          1           0       -2.083119   -1.354902    2.306437
 ---------------------------------------------------------------------

 SCF Done:  E(RwB97XD) =  -652.154811607     A.U. after    1 cycles

 The electronic state is 1-A.
 Alpha  occ. eigenvalues --  -19.40140 -19.39333 -14.69437 -14.58718 -10.52336
 Alpha  occ. eigenvalues --  -10.51704 -10.48950 -10.48221 -10.48025 -10.47207
 Alpha  occ. eigenvalues --  -10.43895 -10.43803 -10.42210 -10.41057  -1.27487
 Alpha  occ. eigenvalues --   -1.24478  -1.23229  -1.18059  -1.09458  -1.05951
 Alpha  occ. eigenvalues --   -1.01184  -0.96883  -0.91900  -0.90715  -0.89608
 Alpha  occ. eigenvalues --   -0.83837  -0.80541  -0.80254  -0.76068  -0.75760
 Alpha  occ. eigenvalues --   -0.75288  -0.74319  -0.71837  -0.70335  -0.69731
 Alpha  occ. eigenvalues --   -0.69169  -0.66205  -0.65630  -0.64629  -0.63454
 Alpha  occ. eigenvalues --   -0.62481  -0.60676  -0.59760  -0.59069  -0.57911
 Alpha  occ. eigenvalues --   -0.57163  -0.56434  -0.54571  -0.54371  -0.53684
 Alpha  occ. eigenvalues --   -0.52853  -0.52505  -0.50343  -0.45085
 Alpha virt. eigenvalues --   -0.15082  -0.12068  -0.06913  -0.05757  -0.05299
 Alpha virt. eigenvalues --   -0.04535  -0.03711  -0.03546  -0.03468  -0.02420
 Alpha virt. eigenvalues --   -0.02234  -0.01608  -0.01245  -0.00854  -0.00103

 Mulliken charges:
               1
     1  C    0.747368
     2  C    0.924371
     3  C    1.109443
     4  C    0.504853
     5  C    0.576223
     6  N   -0.124563
     7  C    0.957711
     8  C    1.135312
     9  C    0.734155
    10  C    1.315402
    11  N   -1.088092
    12  O   -0.448979
    13  H   -0.515606
    14  H   -0.314363
    15  H   -0.273329
    16  H   -0.438059
    17  H   -0.445502
    18  H   -0.442150
    19  H   -0.812742
    20  H   -1.182937
    21  H   -0.591023
    22  H   -0.554549
    23  H   -0.837060
    24  C    0.956918
    25  H    0.110750
    26  H    0.414309
    27  H    0.168294
    28  O   -0.397649
    29  H    0.223550
    30  H    0.183661
    31  H   -0.224872
    32  H   -0.158684
    33  H   -0.212159
 Sum of Mulliken charges =   1.00000

 Dipole moment (field-independent basis, Debye):
    X=              3.2941    Y=             -0.7312    Z=              0.3302  Tot=              3.3904
 Quadrupole moment (field-independent basis, Debye-Ang):
   XX=            -45.7457   YY=            -55.9127   ZZ=            -80.3984
   XY=             -3.1955   XZ=             -2.1273   YZ=             -1.3558

  Exact polarizability: 169.947  -5.249 143.949   3.176  -5.672 113.763
 Approx polarizability: 173.924  -1.181 167.042   2.753  -9.218 128.500

                      1                      2                      3
                      A                      A                      A
 Frequencies --     20.8988                49.5874                55.5663
 Red. masses --      3.3417                 3.1440                 3.4624
 Frc consts  --      0.0009                 0.0046                 0.0063
 IR Inten    --      0.2985                 0.9926                 0.0704

                      4                      5                      6
                      A                      A                      A
 Frequencies --     71.8883               100.2400               114.2259
 Red. masses --      5.2956                 4.0491                 3.8656
 Frc consts  --      0.0161                 0.0240                 0.0297
 IR Inten    --      3.4125                 6.6033                 4.0653

                      7                      8                      9
                      A                      A                      A
 Frequencies --    129.3988               157.0541               187.5926
 Red. masses --      1.1418                 4.4275                 1.9534
 Frc consts  --      0.0113                 0.0643                 0.0405
 IR Inten    --     39.3447                13.4675                 5.2593

                     10                     11                     12
                      A                      A                      A
 Frequencies --    196.0525               204.8315               211.4890
 Red. masses --      1.4053                 2.1507                 3.5924
 Frc consts  --      0.0318                 0.0532                 0.0947
 IR Inten    --    137.7061                43.1684                12.7733

                     13                     14                     15
                      A                      A                      A
 Frequencies --    242.5589               254.5270               271.3669
 Red. masses --      5.1769                 1.0978                 3.3767
 Frc consts  --      0.1795                 0.0419                 0.1465
 IR Inten    --     19.6207                 1.0164                 4.0851

                     16                     17                     18
                      A                      A                      A
 Frequencies --    319.5588               397.3255               403.7248
 Red. masses --      4.2111                 2.7733                 2.9638
 Frc consts  --      0.2534                 0.2580                 0.2846
 IR Inten    --      1.1363                11.7770                 0.7650

                     19                     20                     21
                      A                      A                      A
 Frequencies --    416.0492               508.7091               549.3225
 Red. masses --      2.9683                 1.1072                 3.1258
 Frc consts  --      0.3027                 0.1688                 0.5557
 IR Inten    --      1.3707                55.9750                13.7401

                     22                     23                     24
                      A                      A                      A
 Frequencies --    580.8697               586.3250               628.6705
 Red. masses --      1.1529                 2.7040                 2.2907
 Frc consts  --      0.2292                 0.5477                 0.5334
 IR Inten    --     58.4534                 6.3883                46.1634

                     25                     26                     27
                      A                      A                      A
 Frequencies --    637.9643               653.1271               657.2208
 Red. masses --      2.1315                 3.4924                 2.1641
 Frc consts  --      0.5111                 0.8777                 0.5507
 IR Inten    --     68.5330                 1.5108                79.5720

                     28                     29                     30
                      A                      A                      A
 Frequencies --    716.5531               754.4552               780.3189
 Red. masses --      1.9130                 1.0500                 1.8810
 Frc consts  --      0.5787                 0.3521                 0.6748
 IR Inten    --     42.0828                20.0262                 2.6926

                     31                     32                     33
                      A                      A                      A
 Frequencies --    830.6919               857.9050               919.7116
 Red. masses --      1.5798                 2.0653                 1.8588
 Frc consts  --      0.6423                 0.8956                 0.9264
 IR Inten    --     44.8651                 1.8492                15.3744

                     34                     35                     36
                      A                      A                      A
 Frequencies --    933.2993               950.2679               959.8085
 Red. masses --      3.1111                 1.3426                 1.9485
 Frc consts  --      1.5966                 0.7143                 1.0576
 IR Inten    --      4.3589                33.0620                 2.3915

                     37                     38                     39
                      A                      A                      A
 Frequencies --    976.8501              1001.1912              1031.2460
 Red. masses --      1.6775                 1.8491                 1.4449
 Frc consts  --      0.9431                 1.0921                 0.9053
 IR Inten    --      0.6904                 8.6820                 1.8811

                     40                     41                     42
                      A                      A                      A
 Frequencies --   1038.9384              1063.3636              1068.8798
 Red. masses --      2.1672                 2.3836                 1.7594
 Frc consts  --      1.3782                 1.5880                 1.1843
 IR Inten    --      6.3205                10.6657                 9.4436

                     43                     44                     45
                      A                      A                      A
 Frequencies --   1074.5576              1088.9977              1108.1973
 Red. masses --      1.7439                 1.8416                 2.1513
 Frc consts  --      1.1864                 1.2868                 1.5566
 IR Inten    --     11.5273                 3.4879                 7.6859

                     46                     47                     48
                      A                      A                      A
 Frequencies --   1140.4291              1146.2676              1186.4221
 Red. masses --      1.2761                 1.5004                 1.7911
 Frc consts  --      0.9779                 1.1615                 1.4854
 IR Inten    --      2.8201                12.6630                12.3878

                     49                     50                     51
                      A                      A                      A
 Frequencies --   1211.3531              1223.4664              1239.1996
 Red. masses --      1.3555                 1.4363                 1.7860
 Frc consts  --      1.1719                 1.2667                 1.6159
 IR Inten    --     11.0183                 7.1558                15.7051

                     52                     53                     54
                      A                      A                      A
 Frequencies --   1256.6448              1266.2885              1276.5311
 Red. masses --      1.7332                 1.6196                 1.7666
 Frc consts  --      1.6126                 1.5301                 1.6961
 IR Inten    --      2.7787                13.9697                 8.1442

                     55                     56                     57
                      A                      A                      A
 Frequencies --   1309.1364              1322.9184              1336.6941
 Red. masses --      1.3171                 1.5055                 1.2936
 Frc consts  --      1.3300                 1.5524                 1.3618
 IR Inten    --      4.0424                32.8843                 1.7290

                     58                     59                     60
                      A                      A                      A
 Frequencies --   1354.4159              1376.1336              1377.8516
 Red. masses --      1.4124                 2.1001                 1.8884
 Frc consts  --      1.5265                 2.3432                 2.1122
 IR Inten    --      2.3445                11.9693                 1.7889

                     61                     62                     63
                      A                      A                      A
 Frequencies --   1385.7128              1421.4785              1451.1330
 Red. masses --      1.6337                 1.6197                 1.1948
 Frc consts  --      1.8483                 1.9283                 1.4824
 IR Inten    --      6.5940                21.2154                 1.9922

                     64                     65                     66
                      A                      A                      A
 Frequencies --   1481.2990              1486.0851              1490.7753
 Red. masses --      1.0480                 1.0729                 1.0715
 Frc consts  --      1.3548                 1.3961                 1.4030
 IR Inten    --     14.2869                 9.3154                 7.5110

                     67                     68                     69
                      A                      A                      A
 Frequencies --   1505.1511              1511.6814              1522.5969
 Red. masses --      1.1181                 1.7998                 1.2010
 Frc consts  --      1.4924                 2.4232                 1.6405
 IR Inten    --     10.3677                34.6632                 7.1797

                     70                     71                     72
                      A                      A                      A
 Frequencies --   1601.9595              1654.5852              1688.2973
 Red. masses --      2.0631                 1.1174                 1.3949
 Frc consts  --      3.1195                 1.8023                 2.3426
 IR Inten    --     62.7496                90.4890                16.0949

                     73                     74                     75
                      A                      A                      A
 Frequencies --   1698.1344              1713.1609              2989.9345
 Red. masses --      2.2615                 4.7639                 1.0836
 Frc consts  --      3.8423                 8.2377                 5.7073
 IR Inten    --     46.4492                11.6122                21.7669

                     76                     77                     78
                      A                      A                      A
 Frequencies --   2994.9449              2999.1962              3091.2065
 Red. masses --      1.0711                 1.0496                 1.0640
 Frc consts  --      5.6603                 5.5625                 5.9904
 IR Inten    --     49.5912                63.8712                11.6768

                     79                     80                     81
                      A                      A                      A
 Frequencies --   3099.8671              3104.4153              3120.6595
 Red. masses --      1.0656                 1.0884                 1.0927
 Frc consts  --      6.0330                 6.1799                 6.2697
 IR Inten    --     19.2970                19.5828                17.5956

                     82                     83                     84
                      A                      A                      A
 Frequencies --   3144.8261              3149.1400              3163.0485
 Red. masses --      1.1042                 1.1031                 1.1051
 Frc consts  --      6.4342                 6.4453                 6.5141
 IR Inten    --      1.9552                12.8955                21.3171

                     85                     86                     87
                      A                      A                      A
 Frequencies --   3213.6864              3249.1503              3262.5179
 Red. masses --      1.0929                 1.0932                 1.0955
 Frc consts  --      6.6505                 6.7999                 6.8701
 IR Inten    --      0.1044                 0.9167                10.6672

                     88                     89                     90
                      A                      A                      A
 Frequencies --   3265.0770              3279.9536              3414.5779
 Red. masses --      1.1006                 1.0859                 1.0656
 Frc consts  --      6.9127                 6.8832                 7.3204
 IR Inten    --      6.1063               661.6211               993.9646

                     91                     92                     93
                      A                      A                      A
 Frequencies --   3641.8819              3943.1116              3957.6918
 Red. masses --      1.0600                 1.0678                 1.0707
 Frc consts  --      8.2836                 9.7819                 9.8808
 IR Inten    --    356.1336               106.5496               155.5191

 - Thermochemistry -
 -------------------
 Temperature   180.000 Kelvin.  Pressure   1.00000 Atm.
 Atom     1 has atomic number  6 and mass  12.00000

 Molecular mass:   199.14465 amu.
 Principal axes and moments of inertia in atomic units:
                           1         2         3
     Eigenvalues --  2216.628683555.842584624.07243
           X            0.99995   0.01014   0.00017
           Y           -0.01014   0.99992  -0.00775
           Z           -0.00025   0.00775   0.99997
 This molecule is an asymmetric top.
 Rotational symmetry number  1.
 Warning -- assumption of classical behavior for rotation
           may cause significant error
 Rotational temperatures (Kelvin)      0.03907     0.02436     0.01873
 Rotational constants (GHZ):           0.81418     0.50754     0.39029
 Zero-point vibrational energy     768493.4 (Joules/Mol)
                                  183.67434 (Kcal/Mol)
 Warning -- explicit consideration of  16 degrees of freedom as
           vibrations may cause significant error
 Vibrational temperatures:     30.07    71.35    79.95   103.43   144.22
          (Kelvin)            164.35   186.18   225.97   269.90   282.08
                              294.71   304.29   348.99   366.21   390.44
                              459.77   571.66   580.87   598.60   731.92
                              790.35   835.74   843.59   904.52   917.89
                              939.70   945.59  1030.96  1085.49  1122.70
                             1195.18  1234.33  1323.26  1342.81  1367.22
                             1380.95  1405.47  1440.49  1483.73  1494.80
                             1529.94  1537.88  1546.05  1566.82  1594.45
                             1640.82  1649.22  1707.00  1742.87  1760.30
                             1782.93  1808.03  1821.91  1836.64  1883.56
                             1903.38  1923.20  1948.70  1979.95  1982.42
                             1993.73  2045.19  2087.86  2131.26  2138.15
                             2144.89  2165.58  2174.97  2190.68  2304.86
                             2380.58  2429.08  2443.24  2464.86  4301.85
                             4309.06  4315.17  4447.56  4460.02  4466.56
                             4489.93  4524.70  4530.91  4550.92  4623.78
                             4674.80  4694.04  4697.72  4719.12  4912.82
                             5239.86  5673.26  5694.24

 Zero-point correction=                           0.292704 (Hartree/Particle)
 Thermal correction to Energy=                    0.299650
 Thermal correction to Enthalpy=                  0.300220
 Thermal correction to Gibbs Free Energy=         0.270231
 Sum of electronic and zero-point Energies=           -651.862108
 Sum of electronic and thermal Energies=              -651.855161
 Sum of electronic and thermal Enthalpies=            -651.854591
 Sum of electronic and thermal Free Energies=         -651.884581

                     E (Thermal)             CV                S
                      KCal/Mol        Cal/Mol-Kelvin    Cal/Mol-Kelvin
 Total                  188.033             40.226            104.549
 Electronic               0.000              0.000              0.000
 Translational            0.537              2.981             39.264
 Rotational               0.537              2.981             30.462
 Vibrational            186.960             34.264             34.822
 Vibration     1          0.359              1.983              5.546
 Vibration     2          0.362              1.961              3.839
 Vibration     3          0.364              1.955              3.616
 Vibration     4          0.367              1.933              3.115
 Vibration     5          0.377              1.884              2.480
 Vibration     6          0.382              1.855              2.236
 Vibration     7          0.389              1.819              2.006
 Vibration     8          0.403              1.746              1.661
 Vibration     9          0.422              1.653              1.358
 Vibration    10          0.428              1.626              1.286
 Vibration    11          0.434              1.597              1.216
 Vibration    12          0.439              1.575              1.165
 Vibration    13          0.463              1.466              0.956
 Vibration    14          0.473              1.423              0.887
 Vibration    15          0.488              1.362              0.797
 Vibration    16          0.534              1.185              0.589

 Optimization completed.
    -- Stationary point found.
 Normal termination of Gaussian 16 at Sun Nov 14 14:09:03 2021.
