 Gaussian 16, Revision A.03,
 Gaussian 16:  ES64L-G16RevA.03 25-Dec-2016

 -----------------------------
 # wB97XD/aug-cc-pVDZ opt freq
 -----------------------------

 ----
 blah
 ----
 Symbolic Z-matrix:
 Charge =  1 Multiplicity = 1

 SCF Done:  E(RwB97XD) =  -881.464960636     A.U. after   16 cycles
 SCF Done:  E(RwB97XD) =  -881.465777067     A.U. after   13 cycles
 SCF Done:  E(RwB97XD) =  -881.466106700     A.U. after   11 cycles
 SCF Done:  E(RwB97XD) =  -881.466211150     A.U. after   12 cycles
 SCF Done:  E(RwB97XD) =  -881.466234988     A.U. after   12 cycles
 SCF Done:  E(RwB97XD) =  -881.466401876     A.U. after   12 cycles
 SCF Done:  E(RwB97XD) =  -881.466472783     A.U. after   11 cycles
 SCF Done:  E(RwB97XD) =  -881.466525797     A.U. after   11 cycles
 SCF Done:  E(RwB97XD) =  -881.466553734     A.U. after   10 cycles
 SCF Done:  E(RwB97XD) =  -881.466577405     A.U. after   10 cycles
 SCF Done:  E(RwB97XD) =  -881.466649696     A.U. after    9 cycles
 SCF Done:  E(RwB97XD) =  -881.466649817     A.U. after    8 cycles
 SCF Done:  E(RwB97XD) =  -881.466649909     A.U. after    8 cycles
 SCF Done:  E(RwB97XD) =  -881.466649975     A.U. after    8 cycles
 SCF Done:  E(RwB97XD) =  -881.466649989     A.U. after    8 cycles
 SCF Done:  E(RwB97XD) =  -881.466649995     A.U. after    8 cycles
 SCF Done:  E(RwB97XD) =  -881.466649990     A.U. after    8 cycles
 SCF Done:  E(RwB97XD) =  -881.466649983     A.U. after    7 cycles
 SCF Done:  E(RwB97XD) =  -881.466649981     A.U. after    7 cycles
 Optimization completed.
    -- Stationary point found.
 Normal termination of Gaussian 16 at Tue Dec  6 15:04:44 2022.

 ----------------------------------------------------------------------
 #N Geom=AllCheck Guess=TCheck SCRF=Check GenChk RwB97XD/Aug-CC-pVDZ Fr
 eq
 ----------------------------------------------------------------------

 Structure from the checkpoint file:  "/gscratch/scrubbed/gds001/Gau-10128.chk"
 ----
 blah
 ----
 Charge =  1 Multiplicity = 1

                         Standard orientation:
 ---------------------------------------------------------------------
 Center     Atomic      Atomic             Coordinates (Angstroms)
 Number     Number       Type             X           Y           Z
 ---------------------------------------------------------------------
      1          6           0        1.547549   -2.389466   -1.204233
      2          6           0        1.332396   -1.271631   -0.395790
      3          6           0        0.023269   -1.013212   -0.002401
      4          7           0       -0.980180   -1.805032   -0.397313
      5          6           0       -0.790279   -2.882253   -1.171874
      6          6           0        0.486113   -3.208276   -1.590926
      7          6           0        2.472046   -0.388483    0.052021
      8          7           0        2.219992    1.043363   -0.150184
      9          6           0        3.320209    1.691687    0.577522
     10          6           0        3.425485    0.896126    1.886369
     11          6           0        2.795983   -0.478035    1.554472
     12          8           0       -3.291562   -0.833952    0.176951
     13          8           0       -2.243555    1.504400   -0.504379
     14          8           0       -0.069572    1.953749    1.163517
     15          1           0        3.102516    2.757064    0.722129
     16          1           0        4.466448    0.807134    2.212713
     17          1           0        2.869289    1.388432    2.691500
     18          1           0        3.462222   -1.321242    1.765069
     19          1           0        1.873340   -0.633928    2.126541
     20          1           0        4.257373    1.616589   -0.004337
     21          1           0        3.368295   -0.685352   -0.528347
     22          1           0       -0.257468   -0.169432    0.625354
     23          1           0       -1.677656   -3.450640   -1.439728
     24          1           0        0.644992   -4.081155   -2.219491
     25          1           0        2.558081   -2.623372   -1.540531
     26          6           0        2.139918    1.439593   -1.550460
     27          1           0       -1.978865   -1.506979   -0.103008
     28          1           0        0.777242    1.714907    0.712369
     29          1           0        0.103409    2.719422    1.714814
     30          1           0       -3.102191    0.115522   -0.002613
     31          1           0       -3.795963   -0.907197    1.006160
     32          1           0       -2.650596    2.264929   -0.950848
     33          1           0       -1.544486    1.852107    0.075515
     34          8           0       -4.761409   -1.246334    2.491764
     35          1           0       -5.662150   -1.568126    2.398024
     36          1           0       -4.751787   -0.735214    3.305136
     37          1           0        1.995484    2.524286   -1.612911
     38          1           0        1.280165    0.955969   -2.030128
     39          1           0        3.058286    1.174465   -2.105635
     40          8           0       -3.383328    3.721349   -1.790125
     41          1           0       -3.419442    3.794980   -2.747391
     42          1           0       -4.175934    4.158498   -1.467908
 ---------------------------------------------------------------------

 SCF Done:  E(RwB97XD) =  -881.466649981     A.U. after    1 cycles

 The electronic state is 1-A.
 Alpha  occ. eigenvalues --  -19.39231 -19.38639 -19.37295 -19.36045 -19.34830
 Alpha  occ. eigenvalues --  -14.65353 -14.57334 -10.49522 -10.49041 -10.46566
 Alpha  occ. eigenvalues --  -10.46047 -10.45613 -10.45595 -10.42857 -10.42419
 Alpha  occ. eigenvalues --  -10.40840 -10.40032  -1.24068  -1.23542  -1.22949
 Alpha  occ. eigenvalues --   -1.21622  -1.20586  -1.18636  -1.16795  -1.06967
 Alpha  occ. eigenvalues --   -1.03287  -0.99874  -0.95004  -0.89116  -0.88812
 Alpha  occ. eigenvalues --   -0.87677  -0.81171  -0.79066  -0.78559  -0.73970
 Alpha  occ. eigenvalues --   -0.73528  -0.73373  -0.73315  -0.72758  -0.71900
 Alpha  occ. eigenvalues --   -0.71059  -0.70071  -0.68892  -0.67413  -0.66424
 Alpha  occ. eigenvalues --   -0.64796  -0.63596  -0.62949  -0.62154  -0.60883
 Alpha  occ. eigenvalues --   -0.60714  -0.59713  -0.58307  -0.57766  -0.56599
 Alpha  occ. eigenvalues --   -0.56242  -0.55730  -0.55057  -0.54439  -0.53344
 Alpha  occ. eigenvalues --   -0.52197  -0.52048  -0.51550  -0.51306  -0.50784
 Alpha  occ. eigenvalues --   -0.50129  -0.48731  -0.48043  -0.43706
 Alpha virt. eigenvalues --   -0.12411  -0.09725  -0.05714  -0.04918  -0.04548
 Alpha virt. eigenvalues --   -0.04224  -0.03490  -0.03079  -0.02521  -0.02468
 Alpha virt. eigenvalues --   -0.01429  -0.01268  -0.01087  -0.00524  -0.00400

 Mulliken charges:
               1
     1  C    1.224542
     2  C    0.770244
     3  C    0.533134
     4  N    0.039415
     5  C    0.794783
     6  C    0.325399
     7  C    1.430707
     8  N   -1.236782
     9  C    1.259605
    10  C    0.803645
    11  C    1.030790
    12  O   -0.486647
    13  O   -0.423599
    14  O   -0.428576
    15  H   -0.568913
    16  H   -0.273480
    17  H   -0.281703
    18  H   -0.515892
    19  H   -0.283103
    20  H   -0.565327
    21  H   -0.865595
    22  H   -1.285233
    23  H   -0.637327
    24  H   -0.567342
    25  H   -0.910751
    26  C    0.934048
    27  H    0.132998
    28  H    0.543586
    29  H    0.146955
    30  H    0.252222
    31  H    0.208802
    32  H    0.243016
    33  H    0.227736
    34  O   -0.311069
    35  H    0.143706
    36  H    0.149324
    37  H   -0.217896
    38  H   -0.134602
    39  H   -0.188639
    40  O   -0.295382
    41  H    0.141055
    42  H    0.142147
 Sum of Mulliken charges =   1.00000

 Dipole moment (field-independent basis, Debye):
    X=             -2.2718    Y=             -0.6569    Z=             -0.3306  Tot=              2.3878
 Quadrupole moment (field-independent basis, Debye-Ang):
   XX=            -39.7628   YY=            -61.2180   ZZ=            -78.3647
   XY=             -8.1429   XZ=             -7.9834   YZ=              2.2455

  Exact polarizability: 188.946  10.371 177.338   2.542  18.137 152.638
 Approx polarizability: 196.839   4.789 185.266  -3.329  21.297 169.520

                      1                      2                      3
                      A                      A                      A
 Frequencies --     15.1956                16.9570                26.0991
 Red. masses --      4.9087                 4.3706                 4.4325
 Frc consts  --      0.0007                 0.0007                 0.0018
 IR Inten    --      0.7574                 0.3941                 1.2004

                      4                      5                      6
                      A                      A                      A
 Frequencies --     27.3061                37.3115                54.2760
 Red. masses --      5.0486                 4.4556                 4.8329
 Frc consts  --      0.0022                 0.0037                 0.0084
 IR Inten    --      0.7575                 3.0525                 0.4269

                      7                      8                      9
                      A                      A                      A
 Frequencies --     56.4791                69.1664                72.9756
 Red. masses --      4.1020                 2.2927                 4.2816
 Frc consts  --      0.0077                 0.0065                 0.0134
 IR Inten    --      1.2769                 1.7167                 1.6159

                     10                     11                     12
                      A                      A                      A
 Frequencies --     80.0469                82.8305                92.6171
 Red. masses --      1.2565                 1.1129                 2.3354
 Frc consts  --      0.0047                 0.0045                 0.0118
 IR Inten    --     17.1872                19.3306                 6.2211

                     13                     14                     15
                      A                      A                      A
 Frequencies --     98.8012               119.7656               154.3288
 Red. masses --      4.3320                 4.1031                 4.1795
 Frc consts  --      0.0249                 0.0347                 0.0587
 IR Inten    --      6.4855                 0.7619                 1.5054

                     16                     17                     18
                      A                      A                      A
 Frequencies --    158.0702               172.3348               187.1005
 Red. masses --      2.3000                 4.0835                 1.5682
 Frc consts  --      0.0339                 0.0715                 0.0323
 IR Inten    --      0.3845                42.3852               143.3709

                     19                     20                     21
                      A                      A                      A
 Frequencies --    200.8666               205.5476               212.3972
 Red. masses --      2.0640                 1.9589                 1.6380
 Frc consts  --      0.0491                 0.0488                 0.0435
 IR Inten    --     93.9780                42.9264                98.2610

                     22                     23                     24
                      A                      A                      A
 Frequencies --    220.6423               236.6774               243.5449
 Red. masses --      1.1235                 1.4796                 1.3280
 Frc consts  --      0.0322                 0.0488                 0.0464
 IR Inten    --     33.6881               131.9045                 5.5473

                     25                     26                     27
                      A                      A                      A
 Frequencies --    250.5063               254.3803               264.7569
 Red. masses --      2.3027                 1.2120                 2.5645
 Frc consts  --      0.0851                 0.0462                 0.1059
 IR Inten    --     15.8313                17.0536                 0.7455

                     28                     29                     30
                      A                      A                      A
 Frequencies --    309.8175               320.4019               325.5366
 Red. masses --      4.1710                 5.8324                 5.6954
 Frc consts  --      0.2359                 0.3528                 0.3556
 IR Inten    --      1.6748                18.8617                27.3938

                     31                     32                     33
                      A                      A                      A
 Frequencies --    398.0153               417.1614               421.9845
 Red. masses --      2.8504                 3.0745                 3.1435
 Frc consts  --      0.2660                 0.3152                 0.3298
 IR Inten    --     12.4851                 8.4862                 4.5175

                     34                     35                     36
                      A                      A                      A
 Frequencies --    532.0925               547.2358               578.4564
 Red. masses --      1.1310                 3.3215                 1.9784
 Frc consts  --      0.1887                 0.5860                 0.3900
 IR Inten    --     27.6662                 2.9605                 5.6025

                     37                     38                     39
                      A                      A                      A
 Frequencies --    588.3801               634.0419               647.4479
 Red. masses --      1.2655                 4.7378                 3.1366
 Frc consts  --      0.2581                 1.1222                 0.7747
 IR Inten    --     10.1057                38.0405                 1.8768

                     40                     41                     42
                      A                      A                      A
 Frequencies --    674.4211               691.2564               707.6787
 Red. masses --      5.2553                 1.0945                 1.3506
 Frc consts  --      1.4084                 0.3081                 0.3985
 IR Inten    --     12.4987                89.4725               147.2349

                     43                     44                     45
                      A                      A                      A
 Frequencies --    722.4750               727.0138               752.4914
 Red. masses --      1.0521                 1.4814                 1.0709
 Frc consts  --      0.3236                 0.4613                 0.3573
 IR Inten    --     89.3629               134.7023                57.9397

                     46                     47                     48
                      A                      A                      A
 Frequencies --    781.8817               838.5517               839.4725
 Red. masses --      1.4179                 2.2137                 1.5928
 Frc consts  --      0.5107                 0.9171                 0.6614
 IR Inten    --      0.8223                10.0417                33.3864

                     49                     50                     51
                      A                      A                      A
 Frequencies --    864.6657               920.1868               934.7510
 Red. masses --      1.0781                 1.0689                 2.0335
 Frc consts  --      0.4749                 0.5332                 1.0469
 IR Inten    --     24.4744               153.1834                13.8448

                     52                     53                     54
                      A                      A                      A
 Frequencies --    941.0664               955.0612               983.3351
 Red. masses --      2.3127                 2.4062                 1.5285
 Frc consts  --      1.2067                 1.2931                 0.8708
 IR Inten    --     13.7200                18.2865                 0.9995

                     55                     56                     57
                      A                      A                      A
 Frequencies --    991.5422              1013.6295              1034.2585
 Red. masses --      1.4378                 1.7239                 1.3773
 Frc consts  --      0.8328                 1.0435                 0.8681
 IR Inten    --      8.0216                10.0858                 0.7553

                     58                     59                     60
                      A                      A                      A
 Frequencies --   1041.5776              1054.1650              1075.7677
 Red. masses --      4.0044                 2.3520                 1.8415
 Frc consts  --      2.5596                 1.5400                 1.2556
 IR Inten    --     12.6042                 1.3538                16.8744

                     61                     62                     63
                      A                      A                      A
 Frequencies --   1093.5153              1118.6309              1143.6966
 Red. masses --      2.1763                 2.3331                 1.2835
 Frc consts  --      1.5333                 1.7201                 0.9892
 IR Inten    --      8.8936                 9.7722                 4.3498

                     64                     65                     66
                      A                      A                      A
 Frequencies --   1150.7754              1198.9569              1214.8367
 Red. masses --      1.4939                 1.8105                 1.3209
 Frc consts  --      1.1656                 1.5334                 1.1486
 IR Inten    --      5.9712                15.0084                 8.1313

                     67                     68                     69
                      A                      A                      A
 Frequencies --   1226.5086              1243.6385              1258.5035
 Red. masses --      1.4460                 1.6778                 1.8879
 Frc consts  --      1.2816                 1.5289                 1.7617
 IR Inten    --      5.2599                 7.1674                 9.8765

                     70                     71                     72
                      A                      A                      A
 Frequencies --   1263.8005              1292.7762              1298.3525
 Red. masses --      1.7467                 1.4594                 1.4887
 Frc consts  --      1.6437                 1.4370                 1.4786
 IR Inten    --     13.2833                 1.8482                12.1448

                     73                     74                     75
                      A                      A                      A
 Frequencies --   1316.3862              1328.4901              1335.6146
 Red. masses --      1.2580                 1.3667                 1.7988
 Frc consts  --      1.2844                 1.4211                 1.8906
 IR Inten    --     22.2961                 3.3812                36.9521

                     76                     77                     78
                      A                      A                      A
 Frequencies --   1358.1308              1376.4900              1382.4177
 Red. masses --      1.3687                 1.7546                 1.5372
 Frc consts  --      1.4874                 1.9587                 1.7309
 IR Inten    --      5.4405                15.0864                 4.7199

                     79                     80                     81
                      A                      A                      A
 Frequencies --   1407.7272              1447.3422              1455.9961
 Red. masses --      1.7895                 1.4351                 1.3613
 Frc consts  --      2.0893                 1.7712                 1.7002
 IR Inten    --      6.1115                11.1477                17.8972

                     82                     83                     84
                      A                      A                      A
 Frequencies --   1482.1659              1484.1478              1488.7559
 Red. masses --      1.0458                 1.0717                 1.0716
 Frc consts  --      1.3537                 1.3908                 1.3993
 IR Inten    --     15.1498                 6.1176                 5.9208

                     85                     86                     87
                      A                      A                      A
 Frequencies --   1505.4001              1518.8979              1527.0884
 Red. masses --      1.0895                 1.5011                 1.4492
 Frc consts  --      1.4547                 2.0404                 1.9912
 IR Inten    --     11.0481                40.6709                18.7822

                     88                     89                     90
                      A                      A                      A
 Frequencies --   1610.1498              1630.8950              1634.6380
 Red. masses --      1.1599                 1.0980                 1.2568
 Frc consts  --      1.7718                 1.7207                 1.9787
 IR Inten    --     95.3214                73.9992                37.5899

                     91                     92                     93
                      A                      A                      A
 Frequencies --   1642.5466              1666.9885              1686.7964
 Red. masses --      1.6252                 1.0896                 1.1913
 Frc consts  --      2.5834                 1.7840                 1.9971
 IR Inten    --     19.1384                33.7379                17.2103

                     94                     95                     96
                      A                      A                      A
 Frequencies --   1708.1178              1731.5372              2470.2680
 Red. masses --      3.6112                 1.9838                 1.1317
 Frc consts  --      6.2078                 3.5044                 4.0690
 IR Inten    --      4.7363                60.1553              3084.4654

                     97                     98                     99
                      A                      A                      A
 Frequencies --   2964.1450              2992.0231              2994.9609
 Red. masses --      1.0832                 1.0522                 1.0698
 Frc consts  --      5.6074                 5.5501                 5.6537
 IR Inten    --     44.2279                30.7151                91.5321

                    100                    101                    102
                      A                      A                      A
 Frequencies --   3087.9597              3103.7196              3107.9286
 Red. masses --      1.0627                 1.0674                 1.0855
 Frc consts  --      5.9704                 6.0582                 6.1777
 IR Inten    --     15.3335                16.1882                17.8470

                    103                    104                    105
                      A                      A                      A
 Frequencies --   3117.0642              3142.4281              3151.0554
 Red. masses --      1.0894                 1.1054                 1.1038
 Frc consts  --      6.2362                 6.4312                 6.4575
 IR Inten    --     22.1713                 2.0391                13.1804

                    106                    107                    108
                      A                      A                      A
 Frequencies --   3162.1431              3211.6742              3233.8494
 Red. masses --      1.1063                 1.0923                 1.0964
 Frc consts  --      6.5173                 6.6384                 6.7558
 IR Inten    --     23.1860                 0.4900                16.8008

                    109                    110                    111
                      A                      A                      A
 Frequencies --   3243.2589              3258.0899              3320.3622
 Red. masses --      1.0926                 1.1006                 1.0674
 Frc consts  --      6.7713                 6.8835                 6.9335
 IR Inten    --      0.9741                 1.2997              1095.5922

                    112                    113                    114
                      A                      A                      A
 Frequencies --   3448.0127              3655.5933              3676.2824
 Red. masses --      1.0623                 1.0517                 1.0664
 Frc consts  --      7.4413                 8.2809                 8.4915
 IR Inten    --    830.7615               499.7265               574.9935

                    115                    116                    117
                      A                      A                      A
 Frequencies --   3729.2264              3876.8287              3877.3906
 Red. masses --      1.0845                 1.0453                 1.0453
 Frc consts  --      8.8866                 9.2565                 9.2594
 IR Inten    --    973.3049                20.9538                17.3388

                    118                    119                    120
                      A                      A                      A
 Frequencies --   3949.0078              3982.5603              3983.3816
 Red. masses --      1.0674                 1.0827                 1.0827
 Frc consts  --      9.8075                10.1178                10.1215
 IR Inten    --     93.0755               101.8781               103.5984

 - Thermochemistry -
 -------------------
 Temperature   298.150 Kelvin.  Pressure   1.00000 Atm.
 Atom     1 has atomic number  6 and mass  12.00000

 Molecular mass:   253.17635 amu.
 Principal axes and moments of inertia in atomic units:
                           1         2         3
     Eigenvalues --  4831.723677472.546249277.69152
           X            1.00000   0.00283  -0.00120
           Y           -0.00284   0.99993  -0.01155
           Z            0.00117   0.01156   0.99993
 This molecule is an asymmetric top.
 Rotational symmetry number  1.
 Warning -- assumption of classical behavior for rotation
           may cause significant error
 Rotational temperatures (Kelvin)      0.01793     0.01159     0.00934
 Rotational constants (GHZ):           0.37352     0.24152     0.19452
 Zero-point vibrational energy     962077.1 (Joules/Mol)
                                  229.94194 (Kcal/Mol)
 Warning -- explicit consideration of  37 degrees of freedom as
           vibrations may cause significant error
 Vibrational temperatures:     21.86    24.40    37.55    39.29    53.68
          (Kelvin)             78.09    81.26    99.51   105.00   115.17
                              119.17   133.26   142.15   172.32   222.04
                              227.43   247.95   269.20   289.00   295.74
                              305.59   317.46   340.53   350.41   360.42
                              366.00   380.93   445.76   460.99   468.37
                              572.66   600.20   607.14   765.56   787.35
                              832.27   846.55   912.24   931.53   970.34
                              994.56  1018.19  1039.48  1046.01  1082.67
                             1124.95  1206.49  1207.81  1244.06  1323.94
                             1344.90  1353.98  1374.12  1414.80  1426.61
                             1458.39  1488.07  1498.60  1516.71  1547.79
                             1573.32  1609.46  1645.52  1655.71  1725.03
                             1747.88  1764.67  1789.32  1810.71  1818.33
                             1860.02  1868.04  1893.99  1911.40  1921.65
                             1954.05  1980.46  1988.99  2025.41  2082.40
                             2094.85  2132.51  2135.36  2141.99  2165.93
                             2185.36  2197.14  2316.65  2346.49  2351.88
                             2363.26  2398.42  2426.92  2457.60  2491.30
                             3554.16  4264.74  4304.85  4309.08  4442.89
                             4465.56  4471.62  4484.76  4521.25  4533.67
                             4549.62  4620.88  4652.79  4666.33  4687.66
                             4777.26  4960.92  5259.58  5289.35  5365.53
                             5577.89  5578.70  5681.74  5730.02  5731.20

 Zero-point correction=                           0.366436 (Hartree/Particle)
 Thermal correction to Energy=                    0.392508
 Thermal correction to Enthalpy=                  0.393452
 Thermal correction to Gibbs Free Energy=         0.305870
 Sum of electronic and zero-point Energies=           -881.100214
 Sum of electronic and thermal Energies=              -881.074142
 Sum of electronic and thermal Enthalpies=            -881.073198
 Sum of electronic and thermal Free Energies=         -881.160780

                     E (Thermal)             CV                S
                      KCal/Mol        Cal/Mol-Kelvin    Cal/Mol-Kelvin
 Total                  246.302             88.523            184.333
 Electronic               0.000              0.000              0.000
 Translational            0.889              2.981             42.487
 Rotational               0.889              2.981             34.170
 Vibrational            244.525             82.562            107.675
 Vibration     1          0.593              1.986              7.180
 Vibration     2          0.593              1.986              6.962
 Vibration     3          0.593              1.985              6.106
 Vibration     4          0.593              1.984              6.016
 Vibration     5          0.594              1.982              5.397
 Vibration     6          0.596              1.976              4.655
 Vibration     7          0.596              1.975              4.577
 Vibration     8          0.598              1.969              4.177
 Vibration     9          0.599              1.967              4.071
 Vibration    10          0.600              1.963              3.890
 Vibration    11          0.600              1.961              3.823
 Vibration    12          0.602              1.954              3.604
 Vibration    13          0.604              1.950              3.478
 Vibration    14          0.609              1.933              3.104
 Vibration    15          0.620              1.898              2.618
 Vibration    16          0.621              1.894              2.573
 Vibration    17          0.626              1.877              2.410
 Vibration    18          0.632              1.858              2.256
 Vibration    19          0.638              1.839              2.125
 Vibration    20          0.640              1.832              2.083
 Vibration    21          0.643              1.822              2.023
 Vibration    22          0.647              1.810              1.954
 Vibration    23          0.656              1.785              1.828
 Vibration    24          0.659              1.773              1.777
 Vibration    25          0.663              1.762              1.727
 Vibration    26          0.665              1.755              1.700
 Vibration    27          0.671              1.738              1.630
 Vibration    28          0.699              1.655              1.363
 Vibration    29          0.706              1.634              1.308
 Vibration    30          0.710              1.624              1.282
 Vibration    31          0.764              1.474              0.970
 Vibration    32          0.780              1.433              0.902
 Vibration    33          0.784              1.422              0.885
 Vibration    34          0.887              1.179              0.583
 Vibration    35          0.902              1.146              0.550
 Vibration    36          0.935              1.078              0.488
 Vibration    37          0.946              1.057              0.470

                           ! Non-Optimized Parameters !
 Normal termination of Gaussian 16 at Tue Dec  6 16:26:49 2022.
