 Gaussian 16, Revision A.03,
 Gaussian 16:  ES64L-G16RevA.03 25-Dec-2016

 -----------------------------
 # wB97XD/aug-cc-pVDZ opt freq
 -----------------------------

 ----
 blah
 ----
 Symbolic Z-matrix:
 Charge =  1 Multiplicity = 1

 SCF Done:  E(RwB97XD) =  -881.468886394     A.U. after   16 cycles
 SCF Done:  E(RwB97XD) =  -881.469980713     A.U. after   12 cycles
 SCF Done:  E(RwB97XD) =  -881.465368522     A.U. after   15 cycles
 SCF Done:  E(RwB97XD) =  -881.470220963     A.U. after   12 cycles
 SCF Done:  E(RwB97XD) =  -881.470557156     A.U. after   13 cycles
 SCF Done:  E(RwB97XD) =  -881.470446670     A.U. after   13 cycles
 SCF Done:  E(RwB97XD) =  -881.470910046     A.U. after   13 cycles
 SCF Done:  E(RwB97XD) =  -881.471032241     A.U. after   12 cycles
 SCF Done:  E(RwB97XD) =  -881.471083408     A.U. after   12 cycles
 SCF Done:  E(RwB97XD) =  -881.471121353     A.U. after   12 cycles
 SCF Done:  E(RwB97XD) =  -881.471217262     A.U. after   10 cycles
 SCF Done:  E(RwB97XD) =  -881.471218516     A.U. after   10 cycles
 SCF Done:  E(RwB97XD) =  -881.471219194     A.U. after    8 cycles
 SCF Done:  E(RwB97XD) =  -881.471219573     A.U. after    9 cycles
 SCF Done:  E(RwB97XD) =  -881.471219692     A.U. after    8 cycles
 SCF Done:  E(RwB97XD) =  -881.471219829     A.U. after    8 cycles
 SCF Done:  E(RwB97XD) =  -881.471219940     A.U. after    9 cycles
 SCF Done:  E(RwB97XD) =  -881.471219986     A.U. after    8 cycles
 SCF Done:  E(RwB97XD) =  -881.471220009     A.U. after    7 cycles
 Optimization completed.
    -- Stationary point found.
 Normal termination of Gaussian 16 at Tue Dec  6 15:27:17 2022.

 ----------------------------------------------------------------------
 #N Geom=AllCheck Guess=TCheck SCRF=Check GenChk RwB97XD/Aug-CC-pVDZ Fr
 eq
 ----------------------------------------------------------------------

 Structure from the checkpoint file:  "/gscratch/scrubbed/gds001/Gau-31105.chk"
 ----
 blah
 ----
 Charge =  1 Multiplicity = 1

                         Standard orientation:
 ---------------------------------------------------------------------
 Center     Atomic      Atomic             Coordinates (Angstroms)
 Number     Number       Type             X           Y           Z
 ---------------------------------------------------------------------
      1          6           0        0.956643    2.591473   -0.378613
      2          6           0        0.948191    1.204658   -0.530010
      3          6           0       -0.291053    0.580622   -0.592940
      4          7           0       -1.420404    1.290233   -0.503951
      5          6           0       -1.431516    2.620369   -0.346013
      6          6           0       -0.235956    3.309563   -0.292554
      7          6           0        2.224550    0.402382   -0.607509
      8          7           0        2.308351   -0.638670    0.427661
      9          6           0        3.467138   -1.442292    0.012515
     10          6           0        3.295128   -1.594036   -1.504540
     11          6           0        2.427836   -0.380277   -1.917377
     12          8           0       -3.461744   -0.293375   -0.105719
     13          8           0       -1.938565   -1.566409    1.831507
     14          8           0        0.183908   -2.390793    0.393227
     15          1           0        3.480671   -2.395239    0.555728
     16          1           0        4.263293   -1.605593   -2.014890
     17          1           0        2.784527   -2.532048   -1.749654
     18          1           0        2.901074    0.247661   -2.679403
     19          1           0        1.460992   -0.708340   -2.317721
     20          1           0        4.404330   -0.906876    0.250673
     21          1           0        3.067790    1.108165   -0.475355
     22          1           0       -0.414477   -0.496271   -0.693423
     23          1           0       -2.406451    3.092140   -0.257662
     24          1           0       -0.238044    4.389507   -0.167948
     25          1           0        1.908673    3.119189   -0.316998
     26          6           0        2.422685   -0.108960    1.783933
     27          1           0       -2.322548    0.736249   -0.465719
     28          1           0        0.984681   -1.797611    0.430171
     29          1           0        0.497327   -3.291868    0.291935
     30          1           0       -3.137736   -0.894668    0.587305
     31          1           0       -4.128889   -0.762777   -0.636790
     32          1           0       -2.228192   -2.178651    2.512095
     33          1           0       -1.171114   -1.987755    1.382870
     34          1           0       -1.273792    0.123020    2.389816
     35          8           0       -0.835822    0.989895    2.421569
     36          1           0       -0.991054    1.323603    3.307769
     37          1           0        2.534344   -0.943152    2.486517
     38          1           0        1.512432    0.443103    2.048373
     39          1           0        3.301781    0.552976    1.886620
     40          8           0       -5.438901   -1.588869   -1.525710
     41          1           0       -5.410030   -2.082697   -2.348842
     42          1           0       -6.368105   -1.417613   -1.351773
 ---------------------------------------------------------------------

 SCF Done:  E(RwB97XD) =  -881.471220009     A.U. after    2 cycles

 The electronic state is 1-A.
 Alpha  occ. eigenvalues --  -19.39625 -19.39026 -19.38249 -19.37031 -19.36167
 Alpha  occ. eigenvalues --  -14.65612 -14.57396 -10.49397 -10.49057 -10.46317
 Alpha  occ. eigenvalues --  -10.45779 -10.45544 -10.45309 -10.42884 -10.41707
 Alpha  occ. eigenvalues --  -10.40917 -10.40155  -1.24346  -1.23943  -1.23668
 Alpha  occ. eigenvalues --   -1.22104  -1.21076  -1.20257  -1.16720  -1.06843
 Alpha  occ. eigenvalues --   -1.03216  -0.99815  -0.95011  -0.89149  -0.88656
 Alpha  occ. eigenvalues --   -0.87582  -0.81304  -0.79138  -0.78728  -0.74761
 Alpha  occ. eigenvalues --   -0.74454  -0.73913  -0.73401  -0.73316  -0.71981
 Alpha  occ. eigenvalues --   -0.71446  -0.70117  -0.68802  -0.67477  -0.66503
 Alpha  occ. eigenvalues --   -0.64716  -0.63614  -0.63042  -0.62794  -0.61321
 Alpha  occ. eigenvalues --   -0.60706  -0.59702  -0.58324  -0.58022  -0.57129
 Alpha  occ. eigenvalues --   -0.56333  -0.56095  -0.55490  -0.54806  -0.53322
 Alpha  occ. eigenvalues --   -0.52657  -0.52533  -0.51977  -0.51679  -0.51335
 Alpha  occ. eigenvalues --   -0.51029  -0.49407  -0.47764  -0.43840
 Alpha virt. eigenvalues --   -0.12248  -0.09547  -0.06118  -0.04903  -0.04867
 Alpha virt. eigenvalues --   -0.04309  -0.03567  -0.02954  -0.02634  -0.02513
 Alpha virt. eigenvalues --   -0.01970  -0.01350  -0.01132  -0.00600  -0.00245

 Mulliken charges:
               1
     1  C    1.139650
     2  C    0.682264
     3  C    0.967905
     4  N   -0.011345
     5  C    0.795049
     6  C    0.419607
     7  C    1.378165
     8  N   -1.558884
     9  C    1.280557
    10  C    0.798878
    11  C    1.063505
    12  O   -0.427521
    13  O   -0.663219
    14  O   -0.435751
    15  H   -0.562637
    16  H   -0.279075
    17  H   -0.289016
    18  H   -0.526944
    19  H   -0.299120
    20  H   -0.545765
    21  H   -0.829509
    22  H   -1.341606
    23  H   -0.673730
    24  H   -0.580455
    25  H   -0.938944
    26  C    1.183265
    27  H    0.073210
    28  H    0.551738
    29  H    0.154513
    30  H    0.208320
    31  H    0.233846
    32  H    0.226273
    33  H    0.373950
    34  H    0.238352
    35  O   -0.395074
    36  H    0.181401
    37  H   -0.210553
    38  H   -0.221344
    39  H   -0.133865
    40  O   -0.320786
    41  H    0.152338
    42  H    0.142358
 Sum of Mulliken charges =   1.00000

 Dipole moment (field-independent basis, Debye):
    X=             -2.8798    Y=             -0.2193    Z=             -0.9840  Tot=              3.0512
 Quadrupole moment (field-independent basis, Debye-Ang):
   XX=            -43.2670   YY=            -66.4942   ZZ=            -85.1454
   XY=              7.2215   XZ=              6.8480   YZ=             -0.3435

  Exact polarizability: 191.004 -10.166 180.482  -2.869   2.565 141.631
 Approx polarizability: 198.098  -1.805 198.902  -1.210   5.076 154.730

                      1                      2                      3
                      A                      A                      A
 Frequencies --     17.7763                27.5617                39.1944
 Red. masses --      4.7278                 5.7985                 4.9030
 Frc consts  --      0.0009                 0.0026                 0.0044
 IR Inten    --      1.9479                 1.2565                 2.3518

                      4                      5                      6
                      A                      A                      A
 Frequencies --     46.5529                60.5157                64.7797
 Red. masses --      3.8895                 4.2842                 4.9413
 Frc consts  --      0.0050                 0.0092                 0.0122
 IR Inten    --      2.6816                 0.7401                 3.5901

                      7                      8                      9
                      A                      A                      A
 Frequencies --     74.3932                80.6969                86.7036
 Red. masses --      4.4536                 2.9351                 1.2509
 Frc consts  --      0.0145                 0.0113                 0.0055
 IR Inten    --      0.7374                 4.0324                33.6359

                     10                     11                     12
                      A                      A                      A
 Frequencies --     96.1280               103.3897               118.0937
 Red. masses --      3.3615                 4.8242                 4.2487
 Frc consts  --      0.0183                 0.0304                 0.0349
 IR Inten    --      7.7079                 2.1819                 2.2195

                     13                     14                     15
                      A                      A                      A
 Frequencies --    130.9297               139.6020               159.5629
 Red. masses --      4.6768                 1.1492                 4.2441
 Frc consts  --      0.0472                 0.0132                 0.0637
 IR Inten    --      9.1057               144.1008                47.9668

                     16                     17                     18
                      A                      A                      A
 Frequencies --    165.3451               175.0897               193.8390
 Red. masses --      2.1481                 4.7988                 4.9670
 Frc consts  --      0.0346                 0.0867                 0.1100
 IR Inten    --      5.9292                 6.1039                26.8946

                     19                     20                     21
                      A                      A                      A
 Frequencies --    212.3613               216.8219               228.3387
 Red. masses --      2.9128                 1.1339                 3.7069
 Frc consts  --      0.0774                 0.0314                 0.1139
 IR Inten    --      2.0042                64.8708                28.9956

                     22                     23                     24
                      A                      A                      A
 Frequencies --    230.7458               245.1933               262.0966
 Red. masses --      1.1384                 1.2036                 2.3876
 Frc consts  --      0.0357                 0.0426                 0.0966
 IR Inten    --     21.0192                81.8665                 0.7972

                     25                     26                     27
                      A                      A                      A
 Frequencies --    278.7590               295.5690               305.5460
 Red. masses --      1.2759                 3.6706                 2.8876
 Frc consts  --      0.0584                 0.1889                 0.1588
 IR Inten    --      0.6997                14.7340                14.6156

                     28                     29                     30
                      A                      A                      A
 Frequencies --    318.7948               339.1499               406.3429
 Red. masses --      4.0844                 1.3761                 2.8326
 Frc consts  --      0.2446                 0.0933                 0.2756
 IR Inten    --      1.2203                18.2135                 2.1598

                     31                     32                     33
                      A                      A                      A
 Frequencies --    413.8535               419.3278               428.9039
 Red. masses --      2.7598                 3.0930                 1.1093
 Frc consts  --      0.2785                 0.3204                 0.1202
 IR Inten    --     23.2444                11.1762                56.2523

                     34                     35                     36
                      A                      A                      A
 Frequencies --    506.8183               545.3628               555.0654
 Red. masses --      1.0692                 2.0191                 1.4008
 Frc consts  --      0.1618                 0.3538                 0.2543
 IR Inten    --     67.0056                27.7236                59.0664

                     37                     38                     39
                      A                      A                      A
 Frequencies --    579.9035               616.8738               627.4144
 Red. masses --      2.8427                 1.2273                 1.2952
 Frc consts  --      0.5632                 0.2752                 0.3004
 IR Inten    --      2.3339                69.2811                33.7330

                     40                     41                     42
                      A                      A                      A
 Frequencies --    640.9303               653.8894               673.0925
 Red. masses --      2.7423                 2.6113                 5.2605
 Frc consts  --      0.6637                 0.6578                 1.4042
 IR Inten    --      9.4897                24.7484                 7.8564

                     43                     44                     45
                      A                      A                      A
 Frequencies --    711.9889               729.3546               762.9978
 Red. masses --      1.8383                 1.1217                 1.0901
 Frc consts  --      0.5490                 0.3516                 0.3739
 IR Inten    --     69.2264               282.8213                44.5608

                     46                     47                     48
                      A                      A                      A
 Frequencies --    782.3764               833.6771               840.1665
 Red. masses --      1.4296                 1.5265                 2.1897
 Frc consts  --      0.5156                 0.6251                 0.9107
 IR Inten    --      2.4469                38.5745                 3.2274

                     49                     50                     51
                      A                      A                      A
 Frequencies --    852.9446               923.7283               935.0258
 Red. masses --      1.0954                 1.4121                 2.5394
 Frc consts  --      0.4695                 0.7099                 1.3081
 IR Inten    --     53.2079                22.1094                 6.7416

                     52                     53                     54
                      A                      A                      A
 Frequencies --    954.6858               957.9074               978.0939
 Red. masses --      2.3539                 1.3652                 1.4030
 Frc consts  --      1.2641                 0.7381                 0.7908
 IR Inten    --     15.1457                41.2009                 1.3753

                     55                     56                     57
                      A                      A                      A
 Frequencies --    986.6277              1013.6787              1031.0459
 Red. masses --      1.4744                 1.8641                 1.3777
 Frc consts  --      0.8456                 1.1286                 0.8629
 IR Inten    --      4.2952                 9.5924                 0.4730

                     58                     59                     60
                      A                      A                      A
 Frequencies --   1044.8692              1056.1482              1078.8606
 Red. masses --      4.0315                 2.3686                 1.8236
 Frc consts  --      2.5933                 1.5566                 1.2506
 IR Inten    --      5.7108                 1.8681                15.4542

                     61                     62                     63
                      A                      A                      A
 Frequencies --   1093.9480              1117.8116              1149.0519
 Red. masses --      2.1710                 2.3436                 1.3452
 Frc consts  --      1.5307                 1.7253                 1.0464
 IR Inten    --      4.5435                 8.1085                 1.8588

                     64                     65                     66
                      A                      A                      A
 Frequencies --   1153.6004              1196.0099              1215.4250
 Red. masses --      1.3926                 1.8766                 1.2941
 Frc consts  --      1.0919                 1.5816                 1.1263
 IR Inten    --     11.7302                17.2822                 7.1711

                     67                     68                     69
                      A                      A                      A
 Frequencies --   1228.4416              1231.3189              1244.4140
 Red. masses --      1.3878                 1.1614                 1.6392
 Frc consts  --      1.2339                 1.0375                 1.4956
 IR Inten    --     14.6045                29.6057                 7.8081

                     70                     71                     72
                      A                      A                      A
 Frequencies --   1257.5619              1264.2438              1292.1997
 Red. masses --      1.8635                 1.6723                 1.5629
 Frc consts  --      1.7364                 1.5748                 1.5376
 IR Inten    --     20.9928                 6.1723                 4.0660

                     73                     74                     75
                      A                      A                      A
 Frequencies --   1298.4340              1328.0634              1330.0727
 Red. masses --      1.3761                 1.4321                 1.7966
 Frc consts  --      1.3669                 1.4882                 1.8726
 IR Inten    --     10.3078                10.1204                13.1918

                     76                     77                     78
                      A                      A                      A
 Frequencies --   1360.2119              1376.7889              1381.8215
 Red. masses --      1.3452                 1.9969                 1.5423
 Frc consts  --      1.4664                 2.2301                 1.7351
 IR Inten    --      4.1640                13.5604                 5.5962

                     79                     80                     81
                      A                      A                      A
 Frequencies --   1404.5706              1443.6363              1459.8423
 Red. masses --      1.9133                 1.5848                 1.2018
 Frc consts  --      2.2239                 1.9460                 1.5090
 IR Inten    --      2.3177                25.4692                 6.6987

                     82                     83                     84
                      A                      A                      A
 Frequencies --   1486.3640              1492.2707              1495.3975
 Red. masses --      1.0805                 1.0582                 1.0491
 Frc consts  --      1.4064                 1.3885                 1.3823
 IR Inten    --      2.9404                10.4261                11.7510

                     85                     86                     87
                      A                      A                      A
 Frequencies --   1506.8057              1519.0226              1527.1509
 Red. masses --      1.0907                 1.5238                 1.4323
 Frc consts  --      1.4590                 2.0716                 1.9681
 IR Inten    --     10.0071                31.9850                14.6292

                     88                     89                     90
                      A                      A                      A
 Frequencies --   1625.1261              1632.4896              1639.1602
 Red. masses --      1.3670                 1.1914                 1.3861
 Frc consts  --      2.1271                 1.8707                 2.1942
 IR Inten    --     67.0814                75.6694                13.5262

                     91                     92                     93
                      A                      A                      A
 Frequencies --   1663.7812              1668.6057              1690.4412
 Red. masses --      1.0814                 1.0705                 1.0946
 Frc consts  --      1.7637                 1.7561                 1.8429
 IR Inten    --     60.0296                60.3730                 7.4316

                     94                     95                     96
                      A                      A                      A
 Frequencies --   1711.2216              1723.0117              2832.9718
 Red. masses --      3.8205                 2.9271                 1.1056
 Frc consts  --      6.5915                 5.1199                 5.2280
 IR Inten    --     15.4010                18.3121              2144.6883

                     97                     98                     99
                      A                      A                      A
 Frequencies --   2970.9582              2992.7537              2998.7413
 Red. masses --      1.0836                 1.0489                 1.0713
 Frc consts  --      5.6353                 5.5350                 5.6759
 IR Inten    --     71.3645                91.4887                98.3550

                    100                    101                    102
                      A                      A                      A
 Frequencies --   3088.7954              3101.8459              3109.1104
 Red. masses --      1.0639                 1.0671                 1.0867
 Frc consts  --      5.9804                 6.0491                 6.1894
 IR Inten    --     15.2147                18.6319                15.3277

                    103                    104                    105
                      A                      A                      A
 Frequencies --   3118.0346              3144.4011              3145.8915
 Red. masses --      1.0910                 1.0982                 1.0796
 Frc consts  --      6.2496                 6.3973                 6.2952
 IR Inten    --     21.1861               250.0793               917.1688

                    106                    107                    108
                      A                      A                      A
 Frequencies --   3154.1287              3162.7616              3210.4923
 Red. masses --      1.1025                 1.1052                 1.0925
 Frc consts  --      6.4623                 6.5135                 6.6343
 IR Inten    --    139.4777                19.7827                 1.6995

                    109                    110                    111
                      A                      A                      A
 Frequencies --   3231.1204              3245.4809              3263.8623
 Red. masses --      1.0956                 1.0933                 1.1001
 Frc consts  --      6.7391                 6.7850                 6.9045
 IR Inten    --     80.8141                 0.8989                 1.8366

                    112                    113                    114
                      A                      A                      A
 Frequencies --   3474.2620              3631.1364              3682.6990
 Red. masses --      1.0628                 1.0458                 1.0711
 Frc consts  --      7.5586                 8.1243                 8.5589
 IR Inten    --    665.2798               233.7190              1015.8031

                    115                    116                    117
                      A                      A                      A
 Frequencies --   3714.5364              3880.8246              3937.5199
 Red. masses --      1.0740                 1.0452                 1.0676
 Frc consts  --      8.7309                 9.2744                 9.7521
 IR Inten    --    463.2728                23.0439                92.3015

                    118                    119                    120
                      A                      A                      A
 Frequencies --   3943.7298              3951.5223              3987.8340
 Red. masses --      1.0667                 1.0710                 1.0831
 Frc consts  --      9.7752                 9.8529                10.1480
 IR Inten    --    104.0804                93.1244               110.1535

 - Thermochemistry -
 -------------------
 Temperature   298.150 Kelvin.  Pressure   1.00000 Atm.
 Atom     1 has atomic number  6 and mass  12.00000

 Molecular mass:   253.17635 amu.
 Principal axes and moments of inertia in atomic units:
                           1         2         3
     Eigenvalues --  3824.543317039.215108093.48357
           X            1.00000   0.00154   0.00266
           Y           -0.00158   0.99985   0.01696
           Z           -0.00264  -0.01697   0.99985
 This molecule is an asymmetric top.
 Rotational symmetry number  1.
 Warning -- assumption of classical behavior for rotation
           may cause significant error
 Rotational temperatures (Kelvin)      0.02265     0.01230     0.01070
 Rotational constants (GHZ):           0.47188     0.25638     0.22299
 Zero-point vibrational energy     965621.0 (Joules/Mol)
                                  230.78895 (Kcal/Mol)
 Warning -- explicit consideration of  38 degrees of freedom as
           vibrations may cause significant error
 Vibrational temperatures:     25.58    39.66    56.39    66.98    87.07
          (Kelvin)             93.20   107.04   116.10   124.75   138.31
                              148.75   169.91   188.38   200.86   229.58
                              237.89   251.92   278.89   305.54   311.96
                              328.53   331.99   352.78   377.10   401.07
                              425.26   439.61   458.67   487.96   584.64
                              595.44   603.32   617.10   729.20   784.66
                              798.62   834.35   887.54   902.71   922.16
                              940.80   968.43  1024.39  1049.38  1097.78
                             1125.67  1199.48  1208.81  1227.20  1329.04
                             1345.29  1373.58  1378.22  1407.26  1419.54
                             1458.46  1483.45  1503.33  1519.56  1552.24
                             1573.95  1608.28  1653.23  1659.77  1720.79
                             1748.73  1767.45  1771.59  1790.43  1809.35
                             1818.96  1859.19  1868.16  1910.79  1913.68
                             1957.04  1980.89  1988.13  2020.86  2077.07
                             2100.39  2138.55  2147.04  2151.54  2167.96
                             2185.53  2197.23  2338.19  2348.79  2358.39
                             2393.81  2400.75  2432.17  2462.07  2479.03
                             4076.01  4274.55  4305.91  4314.52  4444.09
                             4462.86  4473.32  4486.16  4524.09  4526.24
                             4538.09  4550.51  4619.18  4648.86  4669.52
                             4695.97  4998.69  5224.40  5298.58  5344.39
                             5583.64  5665.21  5674.15  5685.36  5737.60

 Zero-point correction=                           0.367786 (Hartree/Particle)
 Thermal correction to Energy=                    0.393056
 Thermal correction to Enthalpy=                  0.394001
 Thermal correction to Gibbs Free Energy=         0.311139
 Sum of electronic and zero-point Energies=           -881.103434
 Sum of electronic and thermal Energies=              -881.078164
 Sum of electronic and thermal Enthalpies=            -881.077219
 Sum of electronic and thermal Free Energies=         -881.160081

                     E (Thermal)             CV                S
                      KCal/Mol        Cal/Mol-Kelvin    Cal/Mol-Kelvin
 Total                  246.647             88.209            174.397
 Electronic               0.000              0.000              0.000
 Translational            0.889              2.981             42.487
 Rotational               0.889              2.981             33.743
 Vibrational            244.869             82.247             98.167
 Vibration     1          0.593              1.986              6.868
 Vibration     2          0.593              1.984              5.998
 Vibration     3          0.594              1.981              5.299
 Vibration     4          0.595              1.979              4.959
 Vibration     5          0.597              1.973              4.440
 Vibration     6          0.597              1.971              4.306
 Vibration     7          0.599              1.966              4.034
 Vibration     8          0.600              1.962              3.874
 Vibration     9          0.601              1.958              3.733
 Vibration    10          0.603              1.952              3.531
 Vibration    11          0.605              1.946              3.389
 Vibration    12          0.608              1.934              3.131
 Vibration    13          0.612              1.922              2.932
 Vibration    14          0.615              1.914              2.809
 Vibration    15          0.621              1.892              2.555
 Vibration    16          0.624              1.885              2.488
 Vibration    17          0.627              1.873              2.380
 Vibration    18          0.635              1.848              2.191
 Vibration    19          0.643              1.822              2.023
 Vibration    20          0.646              1.815              1.985
 Vibration    21          0.651              1.798              1.892
 Vibration    22          0.652              1.794              1.873
 Vibration    23          0.660              1.771              1.765
 Vibration    24          0.669              1.742              1.648
 Vibration    25          0.679              1.713              1.541
 Vibration    26          0.690              1.682              1.442
 Vibration    27          0.696              1.663              1.386
 Vibration    28          0.705              1.638              1.316
 Vibration    29          0.719              1.597              1.216
 Vibration    30          0.771              1.456              0.940
 Vibration    31          0.777              1.440              0.913
 Vibration    32          0.782              1.428              0.894
 Vibration    33          0.790              1.407              0.862
 Vibration    34          0.862              1.235              0.641
 Vibration    35          0.901              1.150              0.554
 Vibration    36          0.911              1.129              0.534
 Vibration    37          0.937              1.075              0.486
 Vibration    38          0.977              0.996              0.422

                           ! Non-Optimized Parameters !
 Normal termination of Gaussian 16 at Tue Dec  6 16:57:39 2022.
