 Gaussian 16, Revision A.03,
 Gaussian 16:  ES64L-G16RevA.03 25-Dec-2016

 -----------------------------
 # wB97XD/aug-cc-pVDZ opt freq
 -----------------------------

 ----
 blah
 ----
 Symbolic Z-matrix:
 Charge =  1 Multiplicity = 1

 SCF Done:  E(RwB97XD) =  -881.464544009     A.U. after   16 cycles
 SCF Done:  E(RwB97XD) =  -881.465608766     A.U. after   11 cycles
 SCF Done:  E(RwB97XD) =  -881.466492119     A.U. after   13 cycles
 SCF Done:  E(RwB97XD) =  -881.467138769     A.U. after   13 cycles
 SCF Done:  E(RwB97XD) =  -881.467906137     A.U. after   11 cycles
 SCF Done:  E(RwB97XD) =  -881.468940502     A.U. after   13 cycles
 SCF Done:  E(RwB97XD) =  -881.469170958     A.U. after   11 cycles
 SCF Done:  E(RwB97XD) =  -881.469393675     A.U. after   11 cycles
 SCF Done:  E(RwB97XD) =  -881.469441841     A.U. after   11 cycles
 SCF Done:  E(RwB97XD) =  -881.469492152     A.U. after   11 cycles
 SCF Done:  E(RwB97XD) =  -881.469596691     A.U. after    9 cycles
 SCF Done:  E(RwB97XD) =  -881.469596852     A.U. after    8 cycles
 SCF Done:  E(RwB97XD) =  -881.469596999     A.U. after    8 cycles
 SCF Done:  E(RwB97XD) =  -881.469597093     A.U. after    8 cycles
 SCF Done:  E(RwB97XD) =  -881.469597169     A.U. after    8 cycles
 SCF Done:  E(RwB97XD) =  -881.469597234     A.U. after    8 cycles
 SCF Done:  E(RwB97XD) =  -881.469597292     A.U. after    8 cycles
 SCF Done:  E(RwB97XD) =  -881.469597352     A.U. after    8 cycles
 SCF Done:  E(RwB97XD) =  -881.469597396     A.U. after    7 cycles
 Optimization completed.
    -- Stationary point found.
 Normal termination of Gaussian 16 at Fri Dec  9 15:02:02 2022.

 ----------------------------------------------------------------------
 #N Geom=AllCheck Guess=TCheck SCRF=Check GenChk RwB97XD/Aug-CC-pVDZ Fr
 eq
 ----------------------------------------------------------------------

 Structure from the checkpoint file:  "/gscratch/scrubbed/gds001/Gau-6450.chk"
 ----
 blah
 ----
 Charge =  1 Multiplicity = 1

                         Standard orientation:
 ---------------------------------------------------------------------
 Center     Atomic      Atomic             Coordinates (Angstroms)
 Number     Number       Type             X           Y           Z
 ---------------------------------------------------------------------
      1          6           0        0.737049    2.664057   -0.274832
      2          6           0        0.945475    1.283764   -0.343715
      3          6           0       -0.178618    0.469694   -0.297700
      4          7           0       -1.401601    1.003395   -0.180082
      5          6           0       -1.626414    2.324750   -0.109011
      6          6           0       -0.549081    3.190981   -0.164152
      7          6           0        2.329579    0.692782   -0.469708
      8          7           0        2.632687   -0.296325    0.574860
      9          6           0        3.884220   -0.913792    0.111283
     10          6           0        3.663974   -1.124707   -1.392546
     11          6           0        2.587461   -0.080845   -1.775542
     12          8           0       -3.245409   -0.906228    0.219303
     13          8           0       -1.469325   -1.825080    2.002027
     14          8           0        0.817871   -2.393294    0.640575
     15          1           0        4.077483   -1.840042    0.666192
     16          1           0        4.594155   -0.986320   -1.952410
     17          1           0        3.305167   -2.139223   -1.598218
     18          1           0        2.907730    0.595249   -2.575071
     19          1           0        1.666956   -0.573472   -2.111019
     20          1           0        4.734037   -0.230409    0.291988
     21          1           0        3.053852    1.527648   -0.396571
     22          1           0       -0.134527   -0.617176   -0.340603
     23          1           0       -2.669781    2.615852    0.005676
     24          1           0       -0.716903    4.263726   -0.108162
     25          1           0        1.594353    3.337310   -0.303495
     26          6           0        2.732172    0.272618    1.913834
     27          1           0       -2.206083    0.327636   -0.111449
     28          1           0        1.517194   -1.688980    0.645665
     29          1           0        1.259994   -3.240580    0.557291
     30          1           0       -2.750391   -1.398464    0.907966
     31          1           0       -3.545148   -1.545268   -0.454110
     32          1           0       -1.570791   -2.230014    2.865507
     33          1           0       -0.627519   -2.152396    1.626807
     34          1           0       -4.380438    0.606831    0.546997
     35          8           0       -4.496474    1.566133    0.470491
     36          1           0       -5.379871    1.761934    0.788465
     37          1           0        3.002554   -0.516389    2.624916
     38          1           0        1.764163    0.688290    2.219453
     39          1           0        3.496905    1.068741    1.965295
     40          8           0       -4.078018   -2.614693   -1.788640
     41          1           0       -4.236729   -3.553985   -1.660965
     42          1           0       -4.758014   -2.320495   -2.401111
 ---------------------------------------------------------------------

 SCF Done:  E(RwB97XD) =  -881.469597396     A.U. after    2 cycles

 The electronic state is 1-A.
 Alpha  occ. eigenvalues --  -19.40128 -19.38276 -19.37762 -19.37741 -19.36070
 Alpha  occ. eigenvalues --  -14.66276 -14.57900 -10.49557 -10.49140 -10.46836
 Alpha  occ. eigenvalues --  -10.46325 -10.46025 -10.45581 -10.43295 -10.42905
 Alpha  occ. eigenvalues --  -10.41241 -10.40454  -1.24731  -1.24412  -1.23013
 Alpha  occ. eigenvalues --   -1.22229  -1.21181  -1.20149  -1.17253  -1.07323
 Alpha  occ. eigenvalues --   -1.03517  -1.00302  -0.95392  -0.89534  -0.89258
 Alpha  occ. eigenvalues --   -0.88051  -0.81546  -0.79527  -0.79097  -0.74801
 Alpha  occ. eigenvalues --   -0.74277  -0.74085  -0.73536  -0.73380  -0.72346
 Alpha  occ. eigenvalues --   -0.71642  -0.70309  -0.69307  -0.67739  -0.66884
 Alpha  occ. eigenvalues --   -0.65215  -0.64108  -0.63533  -0.63071  -0.61254
 Alpha  occ. eigenvalues --   -0.60668  -0.60103  -0.58567  -0.57810  -0.57160
 Alpha  occ. eigenvalues --   -0.56982  -0.56473  -0.55913  -0.55396  -0.53773
 Alpha  occ. eigenvalues --   -0.53172  -0.52463  -0.52015  -0.51786  -0.51532
 Alpha  occ. eigenvalues --   -0.51094  -0.49452  -0.48285  -0.44315
 Alpha virt. eigenvalues --   -0.12747  -0.09868  -0.06157  -0.05066  -0.04877
 Alpha virt. eigenvalues --   -0.04086  -0.03496  -0.02890  -0.02813  -0.02640
 Alpha virt. eigenvalues --   -0.01666  -0.01527  -0.00953  -0.00695  -0.00463

 Mulliken charges:
               1
     1  C    1.457728
     2  C    0.556710
     3  C    0.481357
     4  N    0.240674
     5  C    1.099398
     6  C    0.138989
     7  C    1.432686
     8  N   -1.311415
     9  C    1.285402
    10  C    0.794613
    11  C    1.053696
    12  O   -0.809592
    13  O   -0.392695
    14  O   -0.467271
    15  H   -0.562995
    16  H   -0.275533
    17  H   -0.291494
    18  H   -0.524695
    19  H   -0.297223
    20  H   -0.548319
    21  H   -0.849657
    22  H   -1.377327
    23  H   -0.694819
    24  H   -0.580798
    25  H   -0.950570
    26  C    0.962083
    27  H    0.121708
    28  H    0.549844
    29  H    0.161472
    30  H    0.356244
    31  H    0.310199
    32  H    0.157076
    33  H    0.279717
    34  H    0.151419
    35  O   -0.314540
    36  H    0.199175
    37  H   -0.212056
    38  H   -0.152304
    39  H   -0.171833
    40  O   -0.300583
    41  H    0.153164
    42  H    0.142364
 Sum of Mulliken charges =   1.00000

 Dipole moment (field-independent basis, Debye):
    X=             -1.1583    Y=             -1.0824    Z=             -0.6844  Tot=              1.7267
 Quadrupole moment (field-independent basis, Debye-Ang):
   XX=            -44.5714   YY=            -63.1547   ZZ=            -91.2679
   XY=             10.4558   XZ=              6.2737   YZ=              0.6636

  Exact polarizability: 199.050 -10.925 179.051  -3.814   0.803 139.218
 Approx polarizability: 198.557  -3.625 198.979  -3.031   0.919 153.412

                      1                      2                      3
                      A                      A                      A
 Frequencies --     20.1646                21.2620                31.8118
 Red. masses --      4.7889                 4.0572                 4.1042
 Frc consts  --      0.0011                 0.0011                 0.0024
 IR Inten    --      0.4677                 0.7293                 0.9383

                      4                      5                      6
                      A                      A                      A
 Frequencies --     34.6337                41.2575                54.6958
 Red. masses --      5.9136                 4.3353                 2.4027
 Frc consts  --      0.0042                 0.0043                 0.0042
 IR Inten    --      0.4502                 1.0542                 4.1634

                      7                      8                      9
                      A                      A                      A
 Frequencies --     58.2364                62.9546                76.5357
 Red. masses --      1.7920                 2.5317                 3.1649
 Frc consts  --      0.0036                 0.0059                 0.0109
 IR Inten    --     11.1959                 7.8319                 0.5601

                     10                     11                     12
                      A                      A                      A
 Frequencies --     84.4271               107.2064               120.7225
 Red. masses --      3.0359                 4.5404                 4.1558
 Frc consts  --      0.0127                 0.0307                 0.0357
 IR Inten    --      1.0177                 3.3148                 0.5555

                     13                     14                     15
                      A                      A                      A
 Frequencies --    134.9221               158.9480               159.9883
 Red. masses --      5.1921                 2.6691                 3.5427
 Frc consts  --      0.0557                 0.0397                 0.0534
 IR Inten    --     14.0722                 0.8237                 3.1217

                     16                     17                     18
                      A                      A                      A
 Frequencies --    175.2856               186.1195               189.2330
 Red. masses --      4.5746                 1.1857                 3.9766
 Frc consts  --      0.0828                 0.0242                 0.0839
 IR Inten    --     18.6824               121.5723                41.2463

                     19                     20                     21
                      A                      A                      A
 Frequencies --    212.5112               223.0478               238.9551
 Red. masses --      3.0626                 1.1901                 1.1883
 Frc consts  --      0.0815                 0.0349                 0.0400
 IR Inten    --      4.7160                43.8740                80.8000

                     22                     23                     24
                      A                      A                      A
 Frequencies --    241.3733               243.4789               249.6630
 Red. masses --      1.7303                 1.3682                 1.4787
 Frc consts  --      0.0594                 0.0478                 0.0543
 IR Inten    --    123.8661                97.9518                17.6718

                     25                     26                     27
                      A                      A                      A
 Frequencies --    268.9483               286.8498               294.3107
 Red. masses --      2.7862                 1.7067                 4.7711
 Frc consts  --      0.1187                 0.0827                 0.2435
 IR Inten    --      1.2078                26.4304                55.3401

                     28                     29                     30
                      A                      A                      A
 Frequencies --    317.5781               328.6929               403.2445
 Red. masses --      3.8155                 2.3855                 2.8531
 Frc consts  --      0.2267                 0.1518                 0.2733
 IR Inten    --      2.6633                 9.1044                 7.8472

                     31                     32                     33
                      A                      A                      A
 Frequencies --    409.3482               417.8388               422.8762
 Red. masses --      1.5236                 1.8507                 2.5000
 Frc consts  --      0.1504                 0.1904                 0.2634
 IR Inten    --     78.9503                62.7876                20.7101

                     34                     35                     36
                      A                      A                      A
 Frequencies --    470.2554               531.8986               548.7536
 Red. masses --      1.0896                 1.0401                 3.6295
 Frc consts  --      0.1420                 0.1734                 0.6440
 IR Inten    --     39.1109                 4.0740                 3.0988

                     37                     38                     39
                      A                      A                      A
 Frequencies --    562.9610               581.2250               636.7545
 Red. masses --      1.1451                 2.6859                 4.5037
 Frc consts  --      0.2138                 0.5346                 1.0759
 IR Inten    --     19.0410                 1.0542                13.9582

                     40                     41                     42
                      A                      A                      A
 Frequencies --    650.7648               673.3211               718.5795
 Red. masses --      3.5433                 5.3228                 1.9083
 Frc consts  --      0.8841                 1.4218                 0.5806
 IR Inten    --      2.6073                 2.5015                20.7958

                     43                     44                     45
                      A                      A                      A
 Frequencies --    730.7051               753.0711               765.1984
 Red. masses --      1.1290                 1.0513                 1.1283
 Frc consts  --      0.3552                 0.3513                 0.3892
 IR Inten    --     90.6051               140.1117               193.1529

                     46                     47                     48
                      A                      A                      A
 Frequencies --    781.9730               839.7308               848.2146
 Red. masses --      1.4300                 2.2353                 1.5090
 Frc consts  --      0.5152                 0.9287                 0.6397
 IR Inten    --      3.2452                 3.6168                52.4913

                     49                     50                     51
                      A                      A                      A
 Frequencies --    874.9783               895.8274               934.4523
 Red. masses --      1.0664                 1.1193                 2.3390
 Frc consts  --      0.4810                 0.5292                 1.2034
 IR Inten    --    114.1023                42.7581                 3.7337

                     52                     53                     54
                      A                      A                      A
 Frequencies --    943.3729               955.2688               989.5268
 Red. masses --      1.8862                 2.4584                 1.6194
 Frc consts  --      0.9890                 1.3217                 0.9343
 IR Inten    --     19.0953                 9.7902                 4.5178

                     55                     56                     57
                      A                      A                      A
 Frequencies --   1007.7331              1016.1982              1043.7108
 Red. masses --      1.3651                 1.6077                 2.7629
 Frc consts  --      0.8168                 0.9782                 1.7733
 IR Inten    --     13.7300                 5.5402                 2.3012

                     58                     59                     60
                      A                      A                      A
 Frequencies --   1047.4955              1055.9265              1075.1080
 Red. masses --      1.6725                 2.3593                 1.8423
 Frc consts  --      1.0812                 1.5499                 1.2546
 IR Inten    --      1.1562                 1.4492                14.1662

                     61                     62                     63
                      A                      A                      A
 Frequencies --   1089.3379              1117.7475              1143.3640
 Red. masses --      2.1035                 2.3399                 1.2822
 Frc consts  --      1.4707                 1.7224                 0.9876
 IR Inten    --      8.4650                 8.6254                 3.1414

                     64                     65                     66
                      A                      A                      A
 Frequencies --   1152.6947              1197.9837              1216.4714
 Red. masses --      1.4928                 1.8575                 1.3265
 Frc consts  --      1.1686                 1.5707                 1.1566
 IR Inten    --     12.2710                17.2935                21.5097

                     67                     68                     69
                      A                      A                      A
 Frequencies --   1218.7554              1228.7482              1243.2645
 Red. masses --      1.1501                 1.4173                 1.6961
 Frc consts  --      1.0065                 1.2608                 1.5446
 IR Inten    --     35.2561                 1.0116                 6.2474

                     70                     71                     72
                      A                      A                      A
 Frequencies --   1258.8380              1264.2985              1292.7863
 Red. masses --      1.8504                 1.7227                 1.5557
 Frc consts  --      1.7277                 1.6224                 1.5319
 IR Inten    --     13.3351                11.1480                 3.8976

                     73                     74                     75
                      A                      A                      A
 Frequencies --   1298.6303              1328.0760              1329.6971
 Red. masses --      1.3775                 1.6014                 1.8390
 Frc consts  --      1.3687                 1.6642                 1.9158
 IR Inten    --     10.6473                10.6274                 5.5621

                     76                     77                     78
                      A                      A                      A
 Frequencies --   1359.5330              1378.3475              1382.5948
 Red. masses --      1.3521                 1.7577                 1.5150
 Frc consts  --      1.4724                 1.9675                 1.7063
 IR Inten    --      5.2600                 8.5675                 5.3383

                     79                     80                     81
                      A                      A                      A
 Frequencies --   1404.9935              1441.0162              1452.5134
 Red. masses --      1.8084                 1.5099                 1.2390
 Frc consts  --      2.1033                 1.8473                 1.5402
 IR Inten    --      8.2952                14.3463                 7.4600

                     82                     83                     84
                      A                      A                      A
 Frequencies --   1483.5607              1485.4714              1489.9060
 Red. masses --      1.0466                 1.0730                 1.0702
 Frc consts  --      1.3572                 1.3950                 1.3997
 IR Inten    --     13.3783                 6.8406                 6.0317

                     85                     86                     87
                      A                      A                      A
 Frequencies --   1506.0374              1515.4191              1525.4954
 Red. masses --      1.0942                 1.7599                 1.2515
 Frc consts  --      1.4623                 2.3812                 1.7159
 IR Inten    --      9.9333                44.9072                 7.5750

                     88                     89                     90
                      A                      A                      A
 Frequencies --   1622.6738              1626.3192              1637.0599
 Red. masses --      1.4289                 1.3301                 1.0840
 Frc consts  --      2.2168                 2.0727                 1.7116
 IR Inten    --     60.9483               126.7956                69.6942

                     91                     92                     93
                      A                      A                      A
 Frequencies --   1645.9792              1673.5950              1688.0160
 Red. masses --      1.1695                 1.1222                 1.1833
 Frc consts  --      1.8668                 1.8519                 1.9866
 IR Inten    --     55.3751                 3.7800                15.6393

                     94                     95                     96
                      A                      A                      A
 Frequencies --   1709.5711              1719.9392              2951.1360
 Red. masses --      2.5725                 3.1585                 1.0991
 Frc consts  --      4.4298                 5.5050                 5.6396
 IR Inten    --     25.3996                12.6588              1772.1807

                     97                     98                     99
                      A                      A                      A
 Frequencies --   2971.1298              2996.3482              2998.7898
 Red. masses --      1.0836                 1.0508                 1.0703
 Frc consts  --      5.6356                 5.5584                 5.6710
 IR Inten    --     53.7221                41.4417                96.3662

                    100                    101                    102
                      A                      A                      A
 Frequencies --   3089.6031              3103.3144              3110.1154
 Red. masses --      1.0636                 1.0666                 1.0861
 Frc consts  --      5.9820                 6.0521                 6.1897
 IR Inten    --     14.8192                16.3929                16.9301

                    103                    104                    105
                      A                      A                      A
 Frequencies --   3119.5895              3145.4360              3153.1321
 Red. masses --      1.0910                 1.1045                 1.1041
 Frc consts  --      6.2559                 6.4384                 6.4675
 IR Inten    --     20.1557                 1.0844                13.2073

                    106                    107                    108
                      A                      A                      A
 Frequencies --   3163.2619              3208.2258              3229.9464
 Red. masses --      1.1056                 1.0925                 1.0914
 Frc consts  --      6.5178                 6.6252                 6.7085
 IR Inten    --     24.3025                 0.9299               161.3596

                    109                    110                    111
                      A                      A                      A
 Frequencies --   3230.1476              3250.9184              3256.4876
 Red. masses --      1.0967                 1.0981                 1.0733
 Frc consts  --      6.7417                 6.8373                 6.7061
 IR Inten    --     71.4592                 8.5113              1171.6205

                    112                    113                    114
                      A                      A                      A
 Frequencies --   3509.3599              3576.9011              3627.1507
 Red. masses --      1.0594                 1.0580                 1.0784
 Frc consts  --      7.6869                 7.9753                 8.3594
 IR Inten    --    788.9361               358.2238              1039.6688

                    115                    116                    117
                      A                      A                      A
 Frequencies --   3744.9769              3873.5589              3946.2151
 Red. masses --      1.0554                 1.0454                 1.0671
 Frc consts  --      8.7213                 9.2418                 9.7910
 IR Inten    --    181.7895                24.5552                89.2870

                    118                    119                    120
                      A                      A                      A
 Frequencies --   3954.0258              3962.6662              3977.0469
 Red. masses --      1.0690                 1.0733                 1.0825
 Frc consts  --      9.8468                 9.9298                10.0883
 IR Inten    --    117.6776               126.2230               107.4600

 - Thermochemistry -
 -------------------
 Temperature   298.150 Kelvin.  Pressure   1.00000 Atm.
 Atom     1 has atomic number  6 and mass  12.00000

 Molecular mass:   253.17635 amu.
 Principal axes and moments of inertia in atomic units:
                           1         2         3
     Eigenvalues --  3741.732297520.004069123.11172
           X            0.99999   0.00438   0.00220
           Y           -0.00440   0.99995   0.00863
           Z           -0.00216  -0.00864   0.99996
 This molecule is an asymmetric top.
 Rotational symmetry number  1.
 Warning -- assumption of classical behavior for rotation
           may cause significant error
 Rotational temperatures (Kelvin)      0.02315     0.01152     0.00949
 Rotational constants (GHZ):           0.48233     0.23999     0.19782
 Zero-point vibrational energy     965914.8 (Joules/Mol)
                                  230.85918 (Kcal/Mol)
 Warning -- explicit consideration of  38 degrees of freedom as
           vibrations may cause significant error
 Vibrational temperatures:     29.01    30.59    45.77    49.83    59.36
          (Kelvin)             78.70    83.79    90.58   110.12   121.47
                              154.25   173.69   194.12   228.69   230.19
                              252.20   267.78   272.26   305.76   320.92
                              343.80   347.28   350.31   359.21   386.96
                              412.71   423.45   456.92   472.92   580.18
                              588.96   601.18   608.42   676.59   765.28
                              789.53   809.98   836.25   916.15   936.31
                              968.76  1033.88  1051.32  1083.50  1100.95
                             1125.08  1208.19  1220.39  1258.90  1288.90
                             1344.47  1357.30  1374.42  1423.71  1449.90
                             1462.08  1501.67  1507.11  1519.24  1546.84
                             1567.31  1608.19  1645.05  1658.47  1723.63
                             1750.23  1753.52  1767.89  1788.78  1811.19
                             1819.04  1860.03  1868.44  1910.81  1913.14
                             1956.06  1983.13  1989.25  2021.47  2073.30
                             2089.84  2134.51  2137.26  2143.64  2166.85
                             2180.35  2194.85  2334.67  2339.91  2355.36
                             2368.20  2407.93  2428.68  2459.69  2474.61
                             4246.03  4274.79  4311.08  4314.59  4445.25
                             4464.98  4474.76  4488.39  4525.58  4536.65
                             4551.23  4615.92  4647.17  4647.46  4677.35
                             4685.36  5049.19  5146.36  5218.66  5388.19
                             5573.19  5677.72  5688.96  5701.39  5722.08

 Zero-point correction=                           0.367898 (Hartree/Particle)
 Thermal correction to Energy=                    0.393368
 Thermal correction to Enthalpy=                  0.394312
 Thermal correction to Gibbs Free Energy=         0.309733
 Sum of electronic and zero-point Energies=           -881.101700
 Sum of electronic and thermal Energies=              -881.076229
 Sum of electronic and thermal Enthalpies=            -881.075285
 Sum of electronic and thermal Free Energies=         -881.159864

                     E (Thermal)             CV                S
                      KCal/Mol        Cal/Mol-Kelvin    Cal/Mol-Kelvin
 Total                  246.842             88.267            178.012
 Electronic               0.000              0.000              0.000
 Translational            0.889              2.981             42.487
 Rotational               0.889              2.981             33.906
 Vibrational            245.065             82.306            101.619
 Vibration     1          0.593              1.986              6.618
 Vibration     2          0.593              1.985              6.513
 Vibration     3          0.594              1.983              5.713
 Vibration     4          0.594              1.983              5.545
 Vibration     5          0.594              1.981              5.198
 Vibration     6          0.596              1.976              4.640
 Vibration     7          0.596              1.974              4.516
 Vibration     8          0.597              1.972              4.362
 Vibration     9          0.599              1.965              3.978
 Vibration    10          0.601              1.960              3.785
 Vibration    11          0.606              1.943              3.319
 Vibration    12          0.609              1.932              3.089
 Vibration    13          0.613              1.918              2.875
 Vibration    14          0.621              1.893              2.562
 Vibration    15          0.622              1.891              2.550
 Vibration    16          0.627              1.873              2.378
 Vibration    17          0.632              1.859              2.266
 Vibration    18          0.633              1.855              2.235
 Vibration    19          0.644              1.822              2.022
 Vibration    20          0.649              1.806              1.934
 Vibration    21          0.657              1.781              1.811
 Vibration    22          0.658              1.777              1.793
 Vibration    23          0.659              1.774              1.777
 Vibration    24          0.662              1.763              1.733
 Vibration    25          0.673              1.730              1.603
 Vibration    26          0.684              1.698              1.492
 Vibration    27          0.689              1.684              1.449
 Vibration    28          0.704              1.640              1.323
 Vibration    29          0.712              1.618              1.267
 Vibration    30          0.769              1.463              0.951
 Vibration    31          0.774              1.450              0.929
 Vibration    32          0.781              1.431              0.899
 Vibration    33          0.785              1.420              0.882
 Vibration    34          0.827              1.316              0.737
 Vibration    35          0.887              1.179              0.583
 Vibration    36          0.904              1.142              0.547
 Vibration    37          0.919              1.111              0.518
 Vibration    38          0.938              1.072              0.483

                           ! Non-Optimized Parameters !
 Normal termination of Gaussian 16 at Fri Dec  9 16:27:44 2022.
