 Gaussian 16, Revision A.03,
 Gaussian 16:  ES64L-G16RevA.03 25-Dec-2016

 -----------------------------
 # wB97XD/aug-cc-pVDZ Opt Freq
 -----------------------------

 ------------------------------
 p-Py Nornicotine, N anti, 5H2O
 ------------------------------
 Symbolic Z-matrix:
 Charge =  1 Multiplicity = 1

 SCF Done:  E(RwB97XD) =  -881.482050918     A.U. after   15 cycles
 SCF Done:  E(RwB97XD) =  -881.483262659     A.U. after   13 cycles
 SCF Done:  E(RwB97XD) =  -881.483294187     A.U. after   15 cycles
 SCF Done:  E(RwB97XD) =  -881.483754319     A.U. after   13 cycles
 SCF Done:  E(RwB97XD) =  -881.484137155     A.U. after   12 cycles
 SCF Done:  E(RwB97XD) =  -881.484223738     A.U. after   12 cycles
 SCF Done:  E(RwB97XD) =  -881.484477777     A.U. after   12 cycles
 SCF Done:  E(RwB97XD) =  -881.484630306     A.U. after   12 cycles
 SCF Done:  E(RwB97XD) =  -881.484790673     A.U. after   13 cycles
 SCF Done:  E(RwB97XD) =  -881.484910086     A.U. after   13 cycles
 SCF Done:  E(RwB97XD) =  -881.484987355     A.U. after   12 cycles
 SCF Done:  E(RwB97XD) =  -881.484998948     A.U. after   11 cycles
 SCF Done:  E(RwB97XD) =  -881.485018099     A.U. after   11 cycles
 SCF Done:  E(RwB97XD) =  -881.485015806     A.U. after   11 cycles
 SCF Done:  E(RwB97XD) =  -881.485024302     A.U. after   11 cycles
 SCF Done:  E(RwB97XD) =  -881.485025510     A.U. after    9 cycles
 SCF Done:  E(RwB97XD) =  -881.485026309     A.U. after    9 cycles
 SCF Done:  E(RwB97XD) =  -881.485026604     A.U. after    9 cycles
 SCF Done:  E(RwB97XD) =  -881.485026928     A.U. after    8 cycles
 Optimization completed.
    -- Stationary point found.
 Normal termination of Gaussian 16 at Fri Sep  4 18:22:07 2020.

 ----------------------------------------------------------------------
 #N Geom=AllCheck Guess=TCheck SCRF=Check GenChk RwB97XD/Aug-CC-pVDZ Fr
 eq
 ----------------------------------------------------------------------

 Structure from the checkpoint file:  "NicPyrNa5h29.chk"
 ------------------------------
 p-Py Nornicotine, N anti, 5H2O
 ------------------------------
 Charge =  1 Multiplicity = 1

                         Standard orientation:
 ---------------------------------------------------------------------
 Center     Atomic      Atomic             Coordinates (Angstroms)
 Number     Number       Type             X           Y           Z
 ---------------------------------------------------------------------
      1          6           0       -0.199399    2.977062   -0.467871
      2          6           0        0.097047    1.614062   -0.442824
      3          6           0       -0.970417    0.724484   -0.312581
      4          7           0       -2.242789    1.112450   -0.210380
      5          6           0       -2.513715    2.421565   -0.237383
      6          6           0       -1.524027    3.390706   -0.365756
      7          6           0        1.515476    1.117653   -0.558168
      8          7           0        2.015528    0.491906    0.715964
      9          6           0        3.298003   -0.164601    0.324878
     10          6           0        3.015381   -0.755050   -1.063200
     11          6           0        1.789259    0.022959   -1.598445
     12          8           0        0.687748   -1.645222    1.458139
     13          8           0       -1.858543   -1.539205    2.362914
     14          8           0       -3.451237   -1.294321    0.086873
     15          8           0        0.704716   -3.289019   -0.690116
     16          1           0        4.071849    0.612695    0.298800
     17          1           0        3.891496   -0.643875   -1.709004
     18          1           0        2.777453   -1.820565   -0.992258
     19          1           0        0.924410   -0.643106   -1.689968
     20          1           0        1.961878    0.473945   -2.580164
     21          1           0        3.556784   -0.904493    1.087930
     22          1           0        2.179027    1.975942   -0.736772
     23          1           0       -0.798336   -0.351443   -0.292891
     24          1           0       -3.563618    2.702737   -0.154731
     25          1           0       -1.789226    4.445774   -0.387127
     26          1           0        0.598248    3.713811   -0.573176
     27          6           0        2.122069    1.409005    1.865747
     28          1           0        1.363459   -0.309419    0.994603
     29          1           0       -0.211709   -1.654536    1.847918
     30          1           0        0.705311   -2.352289    0.779526
     31          1           0       -3.233569   -0.332821   -0.036119
     32          1           0       -4.407432   -1.377271    0.058885
     33          1           0       -0.149111   -3.078994   -1.120697
     34          1           0        0.770710   -4.246436   -0.669340
     35          1           0       -2.540182   -1.567121    1.667286
     36          1           0       -2.193387   -2.055359    3.099347
     37          8           0       -1.608477   -2.315189   -1.718562
     38          1           0       -2.365876   -2.089081   -1.145775
     39          1           0       -1.969235   -2.495780   -2.589230
     40          1           0        2.805858    2.228716    1.617289
     41          1           0        2.504713    0.850357    2.725016
     42          1           0        1.129587    1.804697    2.101190
 ---------------------------------------------------------------------

 SCF Done:  E(RwB97XD) =  -881.485026928     A.U. after    2 cycles

 The electronic state is 1-A.
 Alpha  occ. eigenvalues --  -19.39316 -19.38496 -19.37814 -19.37797 -19.36751
 Alpha  occ. eigenvalues --  -14.66784 -14.58685 -10.48656 -10.46838 -10.46824
 Alpha  occ. eigenvalues --  -10.46346 -10.46276 -10.44905 -10.44831 -10.43371
 Alpha  occ. eigenvalues --  -10.42559 -10.42012  -1.24179  -1.23943  -1.22920
 Alpha  occ. eigenvalues --   -1.22387  -1.21623  -1.20355  -1.18265  -1.05771
 Alpha  occ. eigenvalues --   -1.03300  -1.00894  -0.96085  -0.93021  -0.87933
 Alpha  occ. eigenvalues --   -0.85616  -0.84329  -0.81919  -0.77376  -0.75168
 Alpha  occ. eigenvalues --   -0.73913  -0.73728  -0.73496  -0.72980  -0.72910
 Alpha  occ. eigenvalues --   -0.72436  -0.71193  -0.68591  -0.68319  -0.66016
 Alpha  occ. eigenvalues --   -0.64262  -0.64180  -0.62627  -0.62557  -0.61980
 Alpha  occ. eigenvalues --   -0.61625  -0.61140  -0.60405  -0.60090  -0.58780
 Alpha  occ. eigenvalues --   -0.58037  -0.57827  -0.56382  -0.55879  -0.55508
 Alpha  occ. eigenvalues --   -0.53673  -0.52968  -0.51767  -0.51162  -0.50921
 Alpha  occ. eigenvalues --   -0.50608  -0.49712  -0.48213  -0.46527
 Alpha virt. eigenvalues --   -0.09528  -0.08385  -0.06155  -0.05593  -0.04587
 Alpha virt. eigenvalues --   -0.04395  -0.03595  -0.03087  -0.03005  -0.02735
 Alpha virt. eigenvalues --   -0.01891  -0.01518  -0.01296  -0.00609  -0.00461

 Mulliken charges:
               1
     1  C    1.241385
     2  C    0.978329
     3  C    0.621933
     4  N   -0.303091
     5  C    0.263607
     6  C    0.518977
     7  C    1.013354
     8  N   -1.321834
     9  C    1.340715
    10  C    0.932798
    11  C    1.296691
    12  O   -0.565114
    13  O   -0.300806
    14  O   -0.737250
    15  O   -0.529908
    16  H   -0.481541
    17  H   -0.250136
    18  H   -0.331209
    19  H   -0.333053
    20  H   -0.551782
    21  H   -0.521275
    22  H   -0.941713
    23  H   -1.125615
    24  H   -0.644203
    25  H   -0.624331
    26  H   -0.916456
    27  C    1.073352
    28  H    0.290303
    29  H    0.325360
    30  H    0.330973
    31  H    0.391987
    32  H    0.275908
    33  H    0.316028
    34  H    0.190217
    35  H    0.200988
    36  H    0.155921
    37  O   -0.427479
    38  H    0.254238
    39  H    0.196747
    40  H   -0.137639
    41  H   -0.097005
    42  H   -0.068372
 Sum of Mulliken charges =   1.00000

 Dipole moment (field-independent basis, Debye):
    X=              0.2843    Y=              1.3627    Z=             -0.2254  Tot=              1.4102
 Quadrupole moment (field-independent basis, Debye-Ang):
   XX=            -55.3251   YY=            -67.3099   ZZ=            -90.6865
   XY=              8.6825   XZ=              2.0425   YZ=              2.4764

  Exact polarizability: 190.684  -8.922 180.107  -1.364   1.039 138.212
 Approx polarizability: 199.232  -3.179 194.599  -2.862  -0.787 154.902

                      1                      2                      3
                      A                      A                      A
 Frequencies --     26.3913                35.3254                45.6908
 Red. masses --      4.8513                 5.0715                 5.3180
 Frc consts  --      0.0020                 0.0037                 0.0065
 IR Inten    --      0.3861                 1.4540                 0.9887

                      4                      5                      6
                      A                      A                      A
 Frequencies --     50.8140                61.6363                72.0342
 Red. masses --      4.6659                 3.8645                 4.7787
 Frc consts  --      0.0071                 0.0087                 0.0146
 IR Inten    --      0.5264                 2.3767                 1.6524

                      7                      8                      9
                      A                      A                      A
 Frequencies --     79.0271                87.1680                99.2780
 Red. masses --      3.9355                 4.9869                 6.1488
 Frc consts  --      0.0145                 0.0223                 0.0357
 IR Inten    --      2.2663                 0.7490                 3.8167

                     10                     11                     12
                      A                      A                      A
 Frequencies --    104.4060               106.2511               151.0938
 Red. masses --      3.3115                 3.2354                 2.1089
 Frc consts  --      0.0213                 0.0215                 0.0284
 IR Inten    --      0.0862                 1.3108                 2.5126

                     13                     14                     15
                      A                      A                      A
 Frequencies --    180.1929               195.9576               203.6178
 Red. masses --      5.0434                 3.7699                 2.6017
 Frc consts  --      0.0965                 0.0853                 0.0636
 IR Inten    --     24.3141                14.0806                 0.1450

                     16                     17                     18
                      A                      A                      A
 Frequencies --    215.2010               221.7580               226.9494
 Red. masses --      1.4886                 2.5772                 2.1658
 Frc consts  --      0.0406                 0.0747                 0.0657
 IR Inten    --     58.1504                51.5572                 7.9043

                     19                     20                     21
                      A                      A                      A
 Frequencies --    233.1927               235.1928               257.1166
 Red. masses --      1.4256                 1.5279                 2.8656
 Frc consts  --      0.0457                 0.0498                 0.1116
 IR Inten    --     15.6387                82.8944                 4.2192

                     22                     23                     24
                      A                      A                      A
 Frequencies --    271.4619               293.4609               304.1459
 Red. masses --      5.4943                 5.7044                 1.4232
 Frc consts  --      0.2385                 0.2894                 0.0776
 IR Inten    --     25.6294                15.5302                51.5195

                     25                     26                     27
                      A                      A                      A
 Frequencies --    319.9975               332.6822               369.4078
 Red. masses --      2.6427                 3.8600                 1.0601
 Frc consts  --      0.1594                 0.2517                 0.0852
 IR Inten    --     22.2336                 6.8366                10.3208

                     28                     29                     30
                      A                      A                      A
 Frequencies --    388.7473               414.1608               435.7271
 Red. masses --      2.8984                 2.8000                 1.0745
 Frc consts  --      0.2581                 0.2830                 0.1202
 IR Inten    --      0.8281                 1.5497                16.2799

                     31                     32                     33
                      A                      A                      A
 Frequencies --    446.8012               455.2027               504.3556
 Red. masses --      2.7764                 1.1270                 1.0870
 Frc consts  --      0.3266                 0.1376                 0.1629
 IR Inten    --     17.0630                71.4004               112.4406

                     34                     35                     36
                      A                      A                      A
 Frequencies --    539.1100               558.4267               566.9871
 Red. masses --      3.6441                 1.4329                 1.8375
 Frc consts  --      0.6240                 0.2633                 0.3480
 IR Inten    --      4.3979                47.8427                 9.8526

                     37                     38                     39
                      A                      A                      A
 Frequencies --    611.0260               635.3229               655.8326
 Red. masses --      1.0574                 3.1652                 5.9984
 Frc consts  --      0.2326                 0.7527                 1.5201
 IR Inten    --     20.7317                 3.1643                15.3482

                     40                     41                     42
                      A                      A                      A
 Frequencies --    679.1174               688.8048               726.6030
 Red. masses --      5.2040                 1.0839                 1.3238
 Frc consts  --      1.4141                 0.3030                 0.4118
 IR Inten    --      1.1400                33.7888               183.6059

                     43                     44                     45
                      A                      A                      A
 Frequencies --    732.2708               792.1859               799.1104
 Red. masses --      1.4089                 1.3284                 1.0801
 Frc consts  --      0.4451                 0.4912                 0.4064
 IR Inten    --    130.2414                17.7241               149.7727

                     46                     47                     48
                      A                      A                      A
 Frequencies --    824.5436               839.6901               863.1564
 Red. masses --      1.9130                 1.7773                 1.0621
 Frc consts  --      0.7663                 0.7383                 0.4662
 IR Inten    --     11.7734                16.7309                62.9461

                     49                     50                     51
                      A                      A                      A
 Frequencies --    901.5832               922.3606               933.5572
 Red. masses --      1.0642                 3.0576                 2.2865
 Frc consts  --      0.5097                 1.5326                 1.1741
 IR Inten    --    126.2736                 5.3812                 6.4525

                     52                     53                     54
                      A                      A                      A
 Frequencies --    945.8316               948.3231               964.7714
 Red. masses --      1.2563                 1.5011                 1.4919
 Frc consts  --      0.6622                 0.7954                 0.8182
 IR Inten    --     31.4141                19.1524                 6.8996

                     55                     56                     57
                      A                      A                      A
 Frequencies --    989.1932              1000.3747              1028.2086
 Red. masses --      1.5304                 1.8822                 1.4207
 Frc consts  --      0.8823                 1.1098                 0.8850
 IR Inten    --      2.6177                 6.9757                 0.1063

                     58                     59                     60
                      A                      A                      A
 Frequencies --   1048.9177              1055.6946              1063.2417
 Red. masses --      1.8835                 5.1874                 2.6180
 Frc consts  --      1.2209                 3.4063                 1.7438
 IR Inten    --     12.6838                 8.5137                 8.4003

                     61                     62                     63
                      A                      A                      A
 Frequencies --   1093.1839              1109.1957              1135.2275
 Red. masses --      2.1969                 2.3021                 1.3070
 Frc consts  --      1.5468                 1.6687                 0.9924
 IR Inten    --      3.7557                 3.4854                 4.0805

                     64                     65                     66
                      A                      A                      A
 Frequencies --   1155.2732              1163.4046              1217.2409
 Red. masses --      1.4147                 2.8138                 1.7845
 Frc consts  --      1.1125                 2.2439                 1.5578
 IR Inten    --      7.7524                15.0928                 3.1194

                     67                     68                     69
                      A                      A                      A
 Frequencies --   1225.4122              1237.6215              1248.1476
 Red. masses --      1.4766                 1.6443                 1.2898
 Frc consts  --      1.3064                 1.4839                 1.1838
 IR Inten    --      7.1943                 4.8304                11.3463

                     70                     71                     72
                      A                      A                      A
 Frequencies --   1271.4225              1287.8790              1300.3673
 Red. masses --      1.5709                 1.2373                 1.5036
 Frc consts  --      1.4962                 1.2091                 1.4980
 IR Inten    --      4.3050                 4.1014                 1.1114

                     73                     74                     75
                      A                      A                      A
 Frequencies --   1316.0731              1342.9606              1367.3756
 Red. masses --      3.6101                 1.3520                 1.2572
 Frc consts  --      3.6841                 1.4366                 1.3849
 IR Inten    --      1.6621                 1.3514                 2.0560

                     76                     77                     78
                      A                      A                      A
 Frequencies --   1380.5396              1383.8196              1408.7933
 Red. masses --      1.4520                 1.4399                 1.5244
 Frc consts  --      1.6305                 1.6245                 1.7826
 IR Inten    --      1.3776                 5.1092                 2.2968

                     79                     80                     81
                      A                      A                      A
 Frequencies --   1452.9567              1482.0750              1483.2055
 Red. masses --      1.1863                 1.9482                 1.1203
 Frc consts  --      1.4755                 2.5213                 1.4520
 IR Inten    --      2.4441                30.4482                 5.5704

                     82                     83                     84
                      A                      A                      A
 Frequencies --   1487.0342              1492.8602              1501.6546
 Red. masses --      1.0494                 1.0882                 1.0974
 Frc consts  --      1.3672                 1.4289                 1.4580
 IR Inten    --      3.5009                 2.1639                19.1381

                     85                     86                     87
                      A                      A                      A
 Frequencies --   1518.8487              1535.6721              1541.3970
 Red. masses --      1.1457                 1.3544                 1.6561
 Frc consts  --      1.5572                 1.8819                 2.3183
 IR Inten    --     22.8051                42.4619                13.3190

                     88                     89                     90
                      A                      A                      A
 Frequencies --   1631.1015              1635.5811              1654.3428
 Red. masses --      1.1084                 1.0908                 1.1411
 Frc consts  --      1.7374                 1.7192                 1.8401
 IR Inten    --     86.3601                68.2648                23.4066

                     91                     92                     93
                      A                      A                      A
 Frequencies --   1661.5106              1675.8833              1680.4249
 Red. masses --      2.3000                 1.2069                 1.3266
 Frc consts  --      3.7410                 1.9971                 2.2072
 IR Inten    --     70.2941                29.9320                19.6582

                     94                     95                     96
                      A                      A                      A
 Frequencies --   1690.0630              1697.8049              2672.6545
 Red. masses --      3.6138                 1.0993                 1.1002
 Frc consts  --      6.0817                 1.8671                 4.6301
 IR Inten    --     51.1123                 1.3134              1407.4056

                     97                     98                     99
                      A                      A                      A
 Frequencies --   3072.1455              3076.7766              3095.5843
 Red. masses --      1.0832                 1.0365                 1.0632
 Frc consts  --      6.0231                 5.7809                 6.0029
 IR Inten    --      3.5190                 2.9434                 8.0568

                    100                    101                    102
                      A                      A                      A
 Frequencies --   3107.3066              3117.4009              3159.3319
 Red. masses --      1.0620                 1.0627                 1.1067
 Frc consts  --      6.0412                 6.0850                 6.5081
 IR Inten    --      7.2851                 9.9855                 2.0748

                    103                    104                    105
                      A                      A                      A
 Frequencies --   3168.1651              3177.3328              3180.6000
 Red. masses --      1.1062                 1.1063                 1.1072
 Frc consts  --      6.5421                 6.5806                 6.5992
 IR Inten    --      1.7918                 0.9887                 4.8918

                    106                    107                    108
                      A                      A                      A
 Frequencies --   3189.4141              3197.5789              3209.3662
 Red. masses --      1.1067                 1.0918                 1.0914
 Frc consts  --      6.6331                 6.5768                 6.6231
 IR Inten    --      1.5699                 5.5035                16.7821

                    109                    110                    111
                      A                      A                      A
 Frequencies --   3212.6295              3239.7525              3254.5882
 Red. masses --      1.0920                 1.0972                 1.0695
 Frc consts  --      6.6407                 6.7853                 6.6747
 IR Inten    --     26.3005                43.4613              1244.1152

                    112                    113                    114
                      A                      A                      A
 Frequencies --   3500.6026              3519.0059              3577.4571
 Red. masses --      1.0628                 1.0598                 1.0717
 Frc consts  --      7.6735                 7.7322                 8.0810
 IR Inten    --    534.8862               355.3182              1174.0659

                    115                    116                    117
                      A                      A                      A
 Frequencies --   3618.8842              3662.5620              3935.1254
 Red. masses --      1.0606                 1.0594                 1.0667
 Frc consts  --      8.1835                 8.3731                 9.7325
 IR Inten    --    572.8970               292.0399               116.9260

                    118                    119                    120
                      A                      A                      A
 Frequencies --   3942.7565              3949.6221              3952.0691
 Red. masses --      1.0685                 1.0693                 1.0704
 Frc consts  --      9.7868                 9.8281                 9.8505
 IR Inten    --    103.0373               183.7178                60.4895

 - Thermochemistry -
 -------------------
 Temperature   298.150 Kelvin.  Pressure   1.00000 Atm.
 Atom     1 has atomic number  6 and mass  12.00000

 Molecular mass:   253.17635 amu.
 Principal axes and moments of inertia in atomic units:
                           1         2         3
     Eigenvalues --  4439.955704992.388216980.57492
           X            0.99675   0.08053   0.00042
           Y           -0.08053   0.99668   0.01231
           Z            0.00057  -0.01231   0.99992
 This molecule is an asymmetric top.
 Rotational symmetry number  1.
 Warning -- assumption of classical behavior for rotation
           may cause significant error
 Rotational temperatures (Kelvin)      0.01951     0.01735     0.01241
 Rotational constants (GHZ):           0.40648     0.36150     0.25854
 Zero-point vibrational energy     974919.2 (Joules/Mol)
                                  233.01127 (Kcal/Mol)
 Warning -- explicit consideration of  37 degrees of freedom as
           vibrations may cause significant error
 Vibrational temperatures:     37.97    50.83    65.74    73.11    88.68
          (Kelvin)            103.64   113.70   125.42   142.84   150.22
                              152.87   217.39   259.26   281.94   292.96
                              309.63   319.06   326.53   335.51   338.39
                              369.93   390.57   422.22   437.60   460.41
                              478.66   531.50   559.32   595.89   626.91
                              642.85   654.94   725.66   775.66   803.45
                              815.77   879.13   914.09   943.60   977.10
                              991.04  1045.42  1053.57  1139.78  1149.74
                             1186.33  1208.13  1241.89  1297.18  1327.07
                             1343.18  1360.84  1364.43  1388.09  1423.23
                             1439.32  1479.36  1509.16  1518.91  1529.77
                             1572.85  1595.89  1633.34  1662.18  1673.88
                             1751.34  1763.09  1780.66  1795.81  1829.29
                             1852.97  1870.94  1893.54  1932.22  1967.35
                             1986.29  1991.01  2026.94  2090.48  2132.38
                             2134.00  2139.51  2147.89  2160.55  2185.28
                             2209.49  2217.73  2346.79  2353.24  2380.23
                             2390.54  2411.22  2417.76  2431.62  2442.76
                             3845.35  4420.13  4426.80  4453.86  4470.72
                             4485.24  4545.57  4558.28  4571.47  4576.17
                             4588.86  4600.60  4617.56  4622.26  4661.28
                             4682.63  5036.59  5063.06  5147.16  5206.77
                             5269.61  5661.77  5672.75  5682.63  5686.15

 Zero-point correction=                           0.371327 (Hartree/Particle)
 Thermal correction to Energy=                    0.394991
 Thermal correction to Enthalpy=                  0.395935
 Thermal correction to Gibbs Free Energy=         0.317983
 Sum of electronic and zero-point Energies=           -881.113700
 Sum of electronic and thermal Energies=              -881.090036
 Sum of electronic and thermal Enthalpies=            -881.089091
 Sum of electronic and thermal Free Energies=         -881.167044

                     E (Thermal)             CV                S
                      KCal/Mol        Cal/Mol-Kelvin    Cal/Mol-Kelvin
 Total                  247.861             85.535            164.065
 Electronic               0.000              0.000              0.000
 Translational            0.889              2.981             42.487
 Rotational               0.889              2.981             33.403
 Vibrational            246.083             79.573             88.175
 Vibration     1          0.593              1.985              6.084
 Vibration     2          0.594              1.982              5.505
 Vibration     3          0.595              1.979              4.996
 Vibration     4          0.595              1.977              4.785
 Vibration     5          0.597              1.973              4.404
 Vibration     6          0.598              1.967              4.097
 Vibration     7          0.600              1.963              3.915
 Vibration     8          0.601              1.958              3.723
 Vibration     9          0.604              1.950              3.468
 Vibration    10          0.605              1.946              3.370
 Vibration    11          0.605              1.944              3.336
 Vibration    12          0.619              1.901              2.658
 Vibration    13          0.629              1.867              2.326
 Vibration    14          0.636              1.846              2.171
 Vibration    15          0.639              1.835              2.100
 Vibration    16          0.645              1.818              1.999
 Vibration    17          0.648              1.808              1.945
 Vibration    18          0.651              1.800              1.903
 Vibration    19          0.654              1.790              1.854
 Vibration    20          0.655              1.787              1.839
 Vibration    21          0.667              1.751              1.681
 Vibration    22          0.675              1.726              1.587
 Vibration    23          0.688              1.686              1.454
 Vibration    24          0.695              1.666              1.394
 Vibration    25          0.706              1.635              1.310
 Vibration    26          0.715              1.610              1.247
 Vibration    27          0.742              1.535              1.082
 Vibration    28          0.757              1.494              1.005
 Vibration    29          0.778              1.439              0.912
 Vibration    30          0.796              1.392              0.840
 Vibration    31          0.806              1.368              0.806
 Vibration    32          0.814              1.349              0.780
 Vibration    33          0.860              1.240              0.647
 Vibration    34          0.894              1.164              0.567
 Vibration    35          0.914              1.121              0.527
 Vibration    36          0.923              1.103              0.510
 Vibration    37          0.970              1.008              0.431

                           ! Non-Optimized Parameters !
 Normal termination of Gaussian 16 at Fri Sep  4 20:01:36 2020.
