 Gaussian 16, Revision A.03,
 Gaussian 16:  ES64L-G16RevA.03 25-Dec-2016

 -----------------------------
 # wB97XD/aug-cc-pVDZ Opt Freq
 -----------------------------

 -------------------------------
 p-Py Nornicotine, W anti , 5H2O
 -------------------------------
 Symbolic Z-matrix:
 Charge =  1 Multiplicity = 1

 SCF Done:  E(RwB97XD) =  -881.471070055     A.U. after   16 cycles
 SCF Done:  E(RwB97XD) =  -881.471626904     A.U. after   13 cycles
 SCF Done:  E(RwB97XD) =  -881.470028740     A.U. after   17 cycles
 SCF Done:  E(RwB97XD) =  -881.472032126     A.U. after   11 cycles
 SCF Done:  E(RwB97XD) =  -881.472082763     A.U. after   11 cycles
 SCF Done:  E(RwB97XD) =  -881.472129593     A.U. after   13 cycles
 SCF Done:  E(RwB97XD) =  -881.472150228     A.U. after   11 cycles
 SCF Done:  E(RwB97XD) =  -881.472179436     A.U. after   11 cycles
 SCF Done:  E(RwB97XD) =  -881.472200816     A.U. after   12 cycles
 SCF Done:  E(RwB97XD) =  -881.472214985     A.U. after   11 cycles
 SCF Done:  E(RwB97XD) =  -881.474848650     A.U. after   10 cycles
 SCF Done:  E(RwB97XD) =  -881.474853866     A.U. after   12 cycles
 SCF Done:  E(RwB97XD) =  -881.474854154     A.U. after    9 cycles
 SCF Done:  E(RwB97XD) =  -881.474855898     A.U. after   11 cycles
 SCF Done:  E(RwB97XD) =  -881.474855684     A.U. after   10 cycles
 SCF Done:  E(RwB97XD) =  -881.474856189     A.U. after   10 cycles
 SCF Done:  E(RwB97XD) =  -881.474856291     A.U. after    8 cycles
 SCF Done:  E(RwB97XD) =  -881.474856374     A.U. after    9 cycles
 SCF Done:  E(RwB97XD) =  -881.474856415     A.U. after    8 cycles
 Optimization completed.
    -- Stationary point found.
 Normal termination of Gaussian 16 at Sat Sep  5 05:07:14 2020.

 ----------------------------------------------------------------------
 #N Geom=AllCheck Guess=TCheck SCRF=Check GenChk RwB97XD/Aug-CC-pVDZ Fr
 eq
 ----------------------------------------------------------------------

 Structure from the checkpoint file:  "NicPyWa5h16b.chk"
 -------------------------------
 p-Py Nornicotine, W anti , 5H2O
 -------------------------------
 Charge =  1 Multiplicity = 1

                         Standard orientation:
 ---------------------------------------------------------------------
 Center     Atomic      Atomic             Coordinates (Angstroms)
 Number     Number       Type             X           Y           Z
 ---------------------------------------------------------------------
      1          6           0        2.080016   -0.689636   -1.771007
      2          6           0        2.283253    0.149092   -0.480680
      3          7           0        2.192449   -0.823429    0.631474
      4          6           0        2.558636   -2.131149    0.069943
      5          6           0        1.846443   -2.125833   -1.274426
      6          6           0        1.281798    1.265475   -0.278924
      7          6           0        1.652045    2.548260    0.122746
      8          6           0        0.687190    3.537439    0.332346
      9          6           0       -0.643027    3.223066    0.131588
     10          7           0       -0.979598    1.984503   -0.261581
     11          6           0       -0.074498    1.022958   -0.466595
     12          8           0       -3.324454    1.015731   -0.828389
     13          8           0       -4.243597   -0.476081    1.240048
     14          8           0       -2.384194   -2.481320    0.567661
     15          8           0       -2.000970   -1.234682   -1.852493
     16          1           0        2.232776   -2.931568    0.745072
     17          1           0        2.237663   -2.879316   -1.965091
     18          1           0        0.774215   -2.315592   -1.130664
     19          1           0        2.988183   -0.635272   -2.381303
     20          1           0        1.255567   -0.318915   -2.389186
     21          1           0        3.653147   -2.213861   -0.063204
     22          1           0        3.290430    0.600099   -0.491891
     23          1           0       -0.476351    0.067021   -0.801593
     24          1           0       -1.457735    3.929921    0.267894
     25          1           0        0.965197    4.541240    0.644582
     26          1           0        2.706568    2.783434    0.271457
     27          6           0        2.977787   -0.437345    1.797212
     28          1           0       -2.003365    1.699183   -0.437375
     29          1           0       -1.598347   -2.118600    1.039456
     30          1           0       -2.422032   -3.418427    0.773679
     31          1           0       -3.790978    0.589585   -0.077379
     32          1           0       -3.061419    0.266481   -1.391917
     33          1           0       -5.149490   -0.704786    1.460316
     34          1           0       -3.766604   -1.312718    1.104857
     35          1           0       -2.192637   -1.852268   -1.120038
     36          1           0       -2.159705   -1.717156   -2.667269
     37          8           0       -0.328606   -1.221493    1.700985
     38          1           0        0.577624   -1.074976    1.321361
     39          1           0       -0.269140   -1.089534    2.649474
     40          1           0        2.864070   -1.193632    2.583333
     41          1           0        2.617422    0.521844    2.191719
     42          1           0        4.051689   -0.340916    1.558740
 ---------------------------------------------------------------------

 SCF Done:  E(RwB97XD) =  -881.474856415     A.U. after    1 cycles

 The electronic state is 1-A.
 Alpha  occ. eigenvalues --  -19.39741 -19.39015 -19.38724 -19.37645 -19.37224
 Alpha  occ. eigenvalues --  -14.66151 -14.58235 -10.50167 -10.49714 -10.47193
 Alpha  occ. eigenvalues --  -10.46482 -10.46392 -10.46192 -10.43640 -10.43519
 Alpha  occ. eigenvalues --  -10.41523 -10.40786  -1.24901  -1.24574  -1.23209
 Alpha  occ. eigenvalues --   -1.22516  -1.22266  -1.20930  -1.17398  -1.07580
 Alpha  occ. eigenvalues --   -1.04018  -1.00840  -0.95853  -0.89943  -0.89656
 Alpha  occ. eigenvalues --   -0.88284  -0.81716  -0.80248  -0.78978  -0.75818
 Alpha  occ. eigenvalues --   -0.74400  -0.74197  -0.74014  -0.73117  -0.72746
 Alpha  occ. eigenvalues --   -0.72129  -0.70706  -0.69761  -0.68488  -0.67326
 Alpha  occ. eigenvalues --   -0.65541  -0.64697  -0.63846  -0.63433  -0.62001
 Alpha  occ. eigenvalues --   -0.61895  -0.59847  -0.59669  -0.59214  -0.58333
 Alpha  occ. eigenvalues --   -0.57279  -0.56489  -0.56309  -0.55449  -0.54048
 Alpha  occ. eigenvalues --   -0.53444  -0.52985  -0.52908  -0.52289  -0.51973
 Alpha  occ. eigenvalues --   -0.50987  -0.50740  -0.48659  -0.44448
 Alpha virt. eigenvalues --   -0.12984  -0.10347  -0.06503  -0.05465  -0.04822
 Alpha virt. eigenvalues --   -0.04499  -0.03475  -0.03185  -0.03152  -0.02689
 Alpha virt. eigenvalues --   -0.02163  -0.01504  -0.01093  -0.00991  -0.00603

 Mulliken charges:
               1
     1  C    1.189614
     2  C    0.795318
     3  N   -1.351532
     4  C    1.575685
     5  C    0.861367
     6  C    0.947976
     7  C    1.168856
     8  C    0.400154
     9  C    0.751916
    10  N    0.113874
    11  C    0.771963
    12  O   -0.599318
    13  O   -0.274058
    14  O   -0.736175
    15  O   -0.540941
    16  H   -0.501966
    17  H   -0.390701
    18  H   -0.229649
    19  H   -0.460053
    20  H   -0.446751
    21  H   -0.469522
    22  H   -0.766784
    23  H   -1.282031
    24  H   -0.685205
    25  H   -0.590816
    26  H   -0.945772
    27  C    0.989246
    28  H    0.137340
    29  H    0.386185
    30  H    0.280965
    31  H    0.283545
    32  H    0.219081
    33  H    0.170495
    34  H    0.185315
    35  H    0.315189
    36  H    0.247261
    37  O   -0.499857
    38  H    0.418448
    39  H    0.189326
    40  H   -0.234209
    41  H   -0.160145
    42  H   -0.233634
 Sum of Mulliken charges =   1.00000

 Dipole moment (field-independent basis, Debye):
    X=              1.2777    Y=              0.1092    Z=              1.2521  Tot=              1.7922
 Quadrupole moment (field-independent basis, Debye-Ang):
   XX=            -68.9049   YY=            -62.1279   ZZ=            -90.3774
   XY=             11.7268   XZ=             -1.0602   YZ=              2.9593

  Exact polarizability: 183.926  -6.230 187.735   2.257   9.199 141.782
 Approx polarizability: 195.882  -1.466 197.612   1.737  11.026 159.250

                      1                      2                      3
                      A                      A                      A
 Frequencies --     22.6616                32.1381                39.6034
 Red. masses --      4.3092                 4.2606                 4.2687
 Frc consts  --      0.0013                 0.0026                 0.0039
 IR Inten    --      1.3766                 0.7029                 1.4316

                      4                      5                      6
                      A                      A                      A
 Frequencies --     43.5646                59.7530                61.3657
 Red. masses --      4.8484                 5.4826                 4.3876
 Frc consts  --      0.0054                 0.0115                 0.0097
 IR Inten    --      0.5945                 2.9022                 1.0560

                      7                      8                      9
                      A                      A                      A
 Frequencies --     79.7503                80.8134               102.3168
 Red. masses --      4.1940                 5.7299                 5.1441
 Frc consts  --      0.0157                 0.0220                 0.0317
 IR Inten    --      3.8566                 1.1568                 1.0112

                     10                     11                     12
                      A                      A                      A
 Frequencies --    110.4198               127.8520               159.6623
 Red. masses --      4.2698                 4.7049                 4.2970
 Frc consts  --      0.0307                 0.0453                 0.0645
 IR Inten    --      0.1304                 5.3763                 9.7759

                     13                     14                     15
                      A                      A                      A
 Frequencies --    181.3494               197.3335               202.3675
 Red. masses --      3.9913                 1.4310                 4.0469
 Frc consts  --      0.0773                 0.0328                 0.0976
 IR Inten    --      4.1563                58.5477                 6.3254

                     16                     17                     18
                      A                      A                      A
 Frequencies --    213.5515               221.6215               243.1894
 Red. masses --      2.4695                 3.3834                 2.2636
 Frc consts  --      0.0664                 0.0979                 0.0789
 IR Inten    --     29.9857                42.9505                 4.7270

                     19                     20                     21
                      A                      A                      A
 Frequencies --    243.5836               252.1318               263.9566
 Red. masses --      2.6968                 1.3054                 2.8988
 Frc consts  --      0.0943                 0.0489                 0.1190
 IR Inten    --      5.6786                99.7032                 2.6319

                     22                     23                     24
                      A                      A                      A
 Frequencies --    268.7643               294.1106               304.8251
 Red. masses --      1.2857                 2.3194                 1.5361
 Frc consts  --      0.0547                 0.1182                 0.0841
 IR Inten    --      0.7159                 8.1026                82.4804

                     25                     26                     27
                      A                      A                      A
 Frequencies --    322.6127               335.7566               343.9585
 Red. masses --      4.6279                 1.0761                 4.0091
 Frc consts  --      0.2838                 0.0715                 0.2795
 IR Inten    --     16.3734                 6.1210                 3.2533

                     28                     29                     30
                      A                      A                      A
 Frequencies --    384.5770               398.6267               410.6270
 Red. masses --      2.8540                 1.0687                 2.6927
 Frc consts  --      0.2487                 0.1001                 0.2675
 IR Inten    --      2.7482                64.1081                12.3172

                     31                     32                     33
                      A                      A                      A
 Frequencies --    423.2868               480.3661               538.0680
 Red. masses --      3.0128                 1.0863                 1.1475
 Frc consts  --      0.3181                 0.1477                 0.1957
 IR Inten    --      1.8063               143.8049                25.7923

                     34                     35                     36
                      A                      A                      A
 Frequencies --    559.4365               561.1693               573.1242
 Red. masses --      1.1292                 2.5380                 1.6907
 Frc consts  --      0.2082                 0.4709                 0.3272
 IR Inten    --     40.8952                 2.5527                12.6956

                     37                     38                     39
                      A                      A                      A
 Frequencies --    595.4722               628.2345               635.9962
 Red. masses --      1.4029                 4.1690                 4.3949
 Frc consts  --      0.2931                 0.9695                 1.0474
 IR Inten    --     33.7546                27.4620                 2.0907

                     40                     41                     42
                      A                      A                      A
 Frequencies --    660.2141               673.5832               720.7547
 Red. masses --      3.2935                 1.0824                 1.7970
 Frc consts  --      0.8458                 0.2894                 0.5500
 IR Inten    --      9.5723               136.0685                48.2517

                     43                     44                     45
                      A                      A                      A
 Frequencies --    738.4799               742.7720               789.2709
 Red. masses --      1.1042                 1.0943                 2.3531
 Frc consts  --      0.3548                 0.3557                 0.8637
 IR Inten    --      6.2188               150.8088                 9.6310

                     46                     47                     48
                      A                      A                      A
 Frequencies --    835.8055               860.9073               868.4151
 Red. masses --      1.5334                 1.1093                 1.6584
 Frc consts  --      0.6311                 0.4844                 0.7369
 IR Inten    --     43.3549               177.2309                20.1185

                     49                     50                     51
                      A                      A                      A
 Frequencies --    887.6678               912.4268               933.1368
 Red. masses --      1.3443                 1.6642                 2.6098
 Frc consts  --      0.6241                 0.8163                 1.3389
 IR Inten    --     34.7893                28.3726                20.6785

                     52                     53                     54
                      A                      A                      A
 Frequencies --    956.2749               958.0476               982.6583
 Red. masses --      1.2312                 1.6953                 1.6817
 Frc consts  --      0.6633                 0.9168                 0.9568
 IR Inten    --    104.5800                16.8072                 3.0060

                     55                     56                     57
                      A                      A                      A
 Frequencies --    988.8844              1002.4894              1032.7713
 Red. masses --      1.4168                 1.5663                 1.4578
 Frc consts  --      0.8163                 0.9274                 0.9161
 IR Inten    --      5.2697                 8.7336                 0.2490

                     58                     59                     60
                      A                      A                      A
 Frequencies --   1044.3455              1059.5636              1074.4787
 Red. masses --      3.2191                 1.7685                 2.4622
 Frc consts  --      2.0686                 1.1698                 1.6748
 IR Inten    --     13.3055                21.6144                 0.5279

                     61                     62                     63
                      A                      A                      A
 Frequencies --   1093.1720              1105.9655              1139.4598
 Red. masses --      2.2404                 1.7463                 1.2652
 Frc consts  --      1.5774                 1.2585                 0.9679
 IR Inten    --     16.5131                 3.5876                 5.9518

                     64                     65                     66
                      A                      A                      A
 Frequencies --   1149.7061              1176.3692              1210.2909
 Red. masses --      1.4879                 1.6165                 1.6312
 Frc consts  --      1.1588                 1.3180                 1.4078
 IR Inten    --      8.0481                 9.1315                 9.8231

                     67                     68                     69
                      A                      A                      A
 Frequencies --   1221.4250              1235.6982              1258.0544
 Red. masses --      1.3300                 1.9456                 1.7378
 Frc consts  --      1.1690                 1.7504                 1.6205
 IR Inten    --      2.4744                20.8276                 4.5054

                     70                     71                     72
                      A                      A                      A
 Frequencies --   1262.4295              1275.9336              1290.2889
 Red. masses --      2.0682                 1.3761                 1.0923
 Frc consts  --      1.9421                 1.3199                 1.0714
 IR Inten    --     16.7879                 8.8879                41.2903

                     73                     74                     75
                      A                      A                      A
 Frequencies --   1313.8976              1332.2425              1344.9829
 Red. masses --      1.3123                 2.4997                 1.3664
 Frc consts  --      1.3348                 2.6139                 1.4564
 IR Inten    --      0.3709                26.4443                 2.9733

                     76                     77                     78
                      A                      A                      A
 Frequencies --   1352.1552              1379.7503              1382.1148
 Red. masses --      1.4790                 1.6527                 1.8180
 Frc consts  --      1.5932                 1.8537                 2.0462
 IR Inten    --      1.2547                 7.4804                10.8360

                     79                     80                     81
                      A                      A                      A
 Frequencies --   1394.7748              1447.1615              1452.8416
 Red. masses --      1.5791                 1.5603                 1.3181
 Frc consts  --      1.8099                 1.9252                 1.6392
 IR Inten    --      5.6060                17.3712                11.9084

                     82                     83                     84
                      A                      A                      A
 Frequencies --   1485.5907              1487.9558              1493.7331
 Red. masses --      1.0478                 1.0812                 1.0669
 Frc consts  --      1.3625                 1.4104                 1.4025
 IR Inten    --     10.1278                 9.2302                11.4288

                     85                     86                     87
                      A                      A                      A
 Frequencies --   1503.3982              1516.6371              1525.6762
 Red. masses --      1.1151                 1.3358                 1.5583
 Frc consts  --      1.4850                 1.8103                 2.1372
 IR Inten    --      6.7988                32.0522                37.2295

                     88                     89                     90
                      A                      A                      A
 Frequencies --   1632.9587              1633.4970              1642.0560
 Red. masses --      1.7455                 1.2320                 1.0908
 Frc consts  --      2.7423                 1.9369                 1.7329
 IR Inten    --     85.5415                46.5623                43.9054

                     91                     92                     93
                      A                      A                      A
 Frequencies --   1655.0652              1684.3640              1704.4829
 Red. masses --      1.0820                 1.0716                 1.4406
 Frc consts  --      1.7463                 1.7913                 2.4659
 IR Inten    --     95.0861                14.6028                56.7241

                     94                     95                     96
                      A                      A                      A
 Frequencies --   1710.8374              1730.8752              2574.1802
 Red. masses --      3.4924                 1.6741                 1.1199
 Frc consts  --      6.0226                 2.9550                 4.3724
 IR Inten    --      7.1620                58.5338              2524.7395

                     97                     98                     99
                      A                      A                      A
 Frequencies --   2998.2860              3003.2259              3009.3692
 Red. masses --      1.0710                 1.0454                 1.0851
 Frc consts  --      5.6728                 5.5553                 5.7901
 IR Inten    --     62.7809                73.0332                56.1750

                    100                    101                    102
                      A                      A                      A
 Frequencies --   3076.9140              3098.8532              3099.8926
 Red. masses --      1.0672                 1.0899                 1.0638
 Frc consts  --      5.9528                 6.1664                 6.0230
 IR Inten    --     13.2939                24.5617                14.3194

                    103                    104                    105
                      A                      A                      A
 Frequencies --   3122.8641              3139.7632              3146.7080
 Red. masses --      1.0948                 1.1035                 1.1040
 Frc consts  --      6.2903                 6.4096                 6.4405
 IR Inten    --     12.3789                13.7632                 3.4278

                    106                    107                    108
                      A                      A                      A
 Frequencies --   3160.6661              3208.9254              3210.1995
 Red. masses --      1.1031                 1.0906                 1.0715
 Frc consts  --      6.4927                 6.6163                 6.5058
 IR Inten    --     30.1172                98.9489              1274.5852

                    109                    110                    111
                      A                      A                      A
 Frequencies --   3224.1876              3243.8410              3259.3949
 Red. masses --      1.0962                 1.0927                 1.1004
 Frc consts  --      6.7140                 6.7745                 6.8877
 IR Inten    --     96.5967                 2.0935                 2.2473

                    112                    113                    114
                      A                      A                      A
 Frequencies --   3427.5687              3517.4280              3594.9639
 Red. masses --      1.0640                 1.0634                 1.0591
 Frc consts  --      7.3651                 7.7520                 8.0647
 IR Inten    --    681.2753               494.2316               592.9906

                    115                    116                    117
                      A                      A                      A
 Frequencies --   3684.7215              3695.1888              3935.5128
 Red. masses --      1.0629                 1.0630                 1.0675
 Frc consts  --      8.5023                 8.5514                 9.7411
 IR Inten    --    140.4755               648.6871                90.9093

                    118                    119                    120
                      A                      A                      A
 Frequencies --   3939.5206              3943.1885              3950.1441
 Red. masses --      1.0694                 1.0669                 1.0715
 Frc consts  --      9.7785                 9.7739                 9.8506
 IR Inten    --    128.5871                85.3884               133.4726

 - Thermochemistry -
 -------------------
 Temperature   298.150 Kelvin.  Pressure   1.00000 Atm.
 Atom     1 has atomic number  6 and mass  12.00000

 Molecular mass:   253.17635 amu.
 Principal axes and moments of inertia in atomic units:
                           1         2         3
     Eigenvalues --  4095.942005680.768277565.98167
           X            0.99999   0.00156   0.00379
           Y           -0.00159   0.99997   0.00790
           Z           -0.00378  -0.00790   0.99996
 This molecule is an asymmetric top.
 Rotational symmetry number  1.
 Warning -- assumption of classical behavior for rotation
           may cause significant error
 Rotational temperatures (Kelvin)      0.02115     0.01525     0.01145
 Rotational constants (GHZ):           0.44062     0.31769     0.23853
 Zero-point vibrational energy     970245.0 (Joules/Mol)
                                  231.89412 (Kcal/Mol)
 Warning -- explicit consideration of  37 degrees of freedom as
           vibrations may cause significant error
 Vibrational temperatures:     32.61    46.24    56.98    62.68    85.97
          (Kelvin)             88.29   114.74   116.27   147.21   158.87
                              183.95   229.72   260.92   283.92   291.16
                              307.25   318.86   349.90   350.46   362.76
                              379.77   386.69   423.16   438.58   464.17
                              483.08   494.88   553.32   573.53   590.80
                              609.02   691.14   774.16   804.90   807.40
                              824.60   856.75   903.89   915.06   949.90
                              969.14  1037.01  1062.51  1068.68  1135.58
                             1202.54  1238.65  1249.46  1277.16  1312.78
                             1342.58  1375.87  1378.42  1413.83  1422.78
                             1442.36  1485.93  1502.58  1524.48  1545.94
                             1572.83  1591.24  1639.43  1654.17  1692.53
                             1741.34  1757.36  1777.89  1810.06  1816.35
                             1835.78  1856.44  1890.41  1916.80  1935.13
                             1945.45  1985.15  1988.55  2006.77  2082.14
                             2090.32  2137.43  2140.84  2149.15  2163.05
                             2182.10  2195.11  2349.46  2350.24  2362.55
                             2381.27  2423.42  2452.37  2461.51  2490.34
                             3703.67  4313.86  4320.97  4329.81  4426.99
                             4458.56  4460.05  4493.10  4517.42  4527.41
                             4547.49  4616.93  4618.76  4638.89  4667.16
                             4689.54  4931.51  5060.79  5172.35  5301.49
                             5316.55  5662.33  5668.09  5673.37  5683.38

 Zero-point correction=                           0.369547 (Hartree/Particle)
 Thermal correction to Energy=                    0.393222
 Thermal correction to Enthalpy=                  0.394166
 Thermal correction to Gibbs Free Energy=         0.315747
 Sum of electronic and zero-point Energies=           -881.105310
 Sum of electronic and thermal Energies=              -881.081635
 Sum of electronic and thermal Enthalpies=            -881.080690
 Sum of electronic and thermal Free Energies=         -881.159109

                     E (Thermal)             CV                S
                      KCal/Mol        Cal/Mol-Kelvin    Cal/Mol-Kelvin
 Total                  246.750             85.700            165.046
 Electronic               0.000              0.000              0.000
 Translational            0.889              2.981             42.487
 Rotational               0.889              2.981             33.531
 Vibrational            244.973             79.739             89.028
 Vibration     1          0.593              1.985              6.386
 Vibration     2          0.594              1.983              5.693
 Vibration     3          0.594              1.981              5.279
 Vibration     4          0.595              1.980              5.090
 Vibration     5          0.597              1.973              4.465
 Vibration     6          0.597              1.973              4.413
 Vibration     7          0.600              1.963              3.897
 Vibration     8          0.600              1.962              3.871
 Vibration     9          0.604              1.947              3.410
 Vibration    10          0.606              1.941              3.262
 Vibration    11          0.611              1.925              2.978
 Vibration    12          0.622              1.892              2.554
 Vibration    13          0.630              1.865              2.314
 Vibration    14          0.637              1.844              2.158
 Vibration    15          0.639              1.837              2.111
 Vibration    16          0.644              1.820              2.013
 Vibration    17          0.648              1.808              1.946
 Vibration    18          0.659              1.774              1.779
 Vibration    19          0.659              1.773              1.777
 Vibration    20          0.664              1.759              1.716
 Vibration    21          0.671              1.739              1.635
 Vibration    22          0.673              1.731              1.604
 Vibration    23          0.689              1.685              1.450
 Vibration    24          0.696              1.665              1.390
 Vibration    25          0.708              1.630              1.297
 Vibration    26          0.717              1.604              1.232
 Vibration    27          0.723              1.588              1.194
 Vibration    28          0.754              1.503              1.021
 Vibration    29          0.765              1.473              0.968
 Vibration    30          0.775              1.447              0.924
 Vibration    31          0.785              1.420              0.881
 Vibration    32          0.837              1.294              0.709
 Vibration    33          0.893              1.166              0.569
 Vibration    34          0.915              1.119              0.525
 Vibration    35          0.917              1.115              0.522
 Vibration    36          0.929              1.089              0.498
 Vibration    37          0.953              1.041              0.458

                           ! Non-Optimized Parameters !
 Normal termination of Gaussian 16 at Sat Sep  5 06:42:23 2020.
