 Gaussian 16, Revision A.03,
 Gaussian 16:  ES64L-G16RevA.03 25-Dec-2016

 -----------------------------
 # wB97XD/aug-cc-pVDZ Opt Freq
 -----------------------------

 ------------------------------
 p-Py Nornicotine, N anti, 5H2O
 ------------------------------
 Symbolic Z-matrix:
 Charge =  1 Multiplicity = 1

 SCF Done:  E(RwB97XD) =  -881.480692091     A.U. after   15 cycles
 SCF Done:  E(RwB97XD) =  -881.481301657     A.U. after   13 cycles
 SCF Done:  E(RwB97XD) =  -881.481456958     A.U. after   14 cycles
 SCF Done:  E(RwB97XD) =  -881.482047543     A.U. after   12 cycles
 SCF Done:  E(RwB97XD) =  -881.482208523     A.U. after   13 cycles
 SCF Done:  E(RwB97XD) =  -881.482435935     A.U. after   13 cycles
 SCF Done:  E(RwB97XD) =  -881.482554745     A.U. after   13 cycles
 SCF Done:  E(RwB97XD) =  -881.482708404     A.U. after   12 cycles
 SCF Done:  E(RwB97XD) =  -881.482720194     A.U. after   13 cycles
 SCF Done:  E(RwB97XD) =  -881.482823643     A.U. after   12 cycles
 SCF Done:  E(RwB97XD) =  -881.482959749     A.U. after   12 cycles
 SCF Done:  E(RwB97XD) =  -881.482959992     A.U. after    9 cycles
 SCF Done:  E(RwB97XD) =  -881.482960068     A.U. after    8 cycles
 SCF Done:  E(RwB97XD) =  -881.482960097     A.U. after    9 cycles
 SCF Done:  E(RwB97XD) =  -881.482960145     A.U. after    8 cycles
 SCF Done:  E(RwB97XD) =  -881.482960214     A.U. after    8 cycles
 SCF Done:  E(RwB97XD) =  -881.482960202     A.U. after    9 cycles
 SCF Done:  E(RwB97XD) =  -881.482960182     A.U. after    9 cycles
 SCF Done:  E(RwB97XD) =  -881.482960134     A.U. after    9 cycles
 Optimization completed.
    -- Stationary point found.
 Normal termination of Gaussian 16 at Fri Sep  4 20:41:59 2020.

 ----------------------------------------------------------------------
 #N Geom=AllCheck Guess=TCheck SCRF=Check GenChk RwB97XD/Aug-CC-pVDZ Fr
 eq
 ----------------------------------------------------------------------

 Structure from the checkpoint file:  "NicPyrNa5h30.chk"
 ------------------------------
 p-Py Nornicotine, N anti, 5H2O
 ------------------------------
 Charge =  1 Multiplicity = 1

                         Standard orientation:
 ---------------------------------------------------------------------
 Center     Atomic      Atomic             Coordinates (Angstroms)
 Number     Number       Type             X           Y           Z
 ---------------------------------------------------------------------
      1          6           0        0.355639    2.709476    0.197851
      2          6           0        0.604163    1.444000   -0.334600
      3          6           0       -0.479130    0.744577   -0.868110
      4          7           0       -1.725984    1.219588   -0.875613
      5          6           0       -1.952641    2.429748   -0.354732
      6          6           0       -0.939980    3.215332    0.185600
      7          6           0        1.987849    0.847074   -0.308349
      8          7           0        2.110362   -0.262694    0.700757
      9          6           0        3.434311   -0.888754    0.415467
     10          6           0        3.583234   -0.817967   -1.113412
     11          6           0        2.499998    0.179093   -1.587889
     12          8           0        0.345486   -2.206208    0.491868
     13          8           0       -1.242389   -1.168071    2.424259
     14          8           0       -3.373334   -0.862485   -1.412990
     15          8           0       -1.129178   -2.443047   -1.802455
     16          1           0        4.198229   -0.296759    0.933989
     17          1           0        4.590109   -0.482270   -1.379881
     18          1           0        3.432836   -1.801891   -1.567572
     19          1           0        1.683344   -0.349420   -2.092143
     20          1           0        2.883556    0.930495   -2.284192
     21          1           0        3.431876   -1.903982    0.822910
     22          1           0        2.701688    1.616784    0.019093
     23          1           0       -0.351676   -0.245771   -1.305996
     24          1           0       -2.984534    2.780063   -0.371811
     25          1           0       -1.165822    4.199284    0.591318
     26          1           0        1.170133    3.299997    0.619744
     27          6           0        1.916169    0.143045    2.107651
     28          1           0        1.366333   -1.003566    0.496942
     29          1           0       -0.299640   -1.982047    1.196480
     30          1           0       -0.181694   -2.410986   -0.305914
     31          1           0       -2.888281    0.003289   -1.345954
     32          1           0       -4.065803   -0.748164   -2.068833
     33          1           0       -2.011493   -2.026862   -1.746555
     34          1           0       -1.246784   -3.271420   -2.272946
     35          1           0       -2.149857   -0.993694    2.091086
     36          1           0       -1.362006   -1.617212    3.264424
     37          8           0       -3.703743   -0.717993    1.351608
     38          1           0       -3.757825   -0.887771    0.393858
     39          1           0       -4.518982   -1.049781    1.734078
     40          1           0        2.102992   -0.725382    2.746300
     41          1           0        0.881543    0.470824    2.244761
     42          1           0        2.618702    0.946670    2.355624
 ---------------------------------------------------------------------

 SCF Done:  E(RwB97XD) =  -881.482960135     A.U. after    1 cycles

 The electronic state is 1-A.
 Alpha  occ. eigenvalues --  -19.38990 -19.38312 -19.37638 -19.37586 -19.36947
 Alpha  occ. eigenvalues --  -14.66905 -14.58607 -10.48868 -10.47154 -10.46527
 Alpha  occ. eigenvalues --  -10.46372 -10.46203 -10.44884 -10.44828 -10.43298
 Alpha  occ. eigenvalues --  -10.43185 -10.42860  -1.24238  -1.23712  -1.22537
 Alpha  occ. eigenvalues --   -1.22492  -1.21275  -1.20487  -1.18217  -1.05851
 Alpha  occ. eigenvalues --   -1.03620  -1.00934  -0.96282  -0.93060  -0.88089
 Alpha  occ. eigenvalues --   -0.85595  -0.84420  -0.82368  -0.77325  -0.75091
 Alpha  occ. eigenvalues --   -0.73873  -0.73619  -0.73423  -0.72876  -0.72488
 Alpha  occ. eigenvalues --   -0.72036  -0.71227  -0.68929  -0.68480  -0.66048
 Alpha  occ. eigenvalues --   -0.64411  -0.64179  -0.62806  -0.62498  -0.62137
 Alpha  occ. eigenvalues --   -0.61351  -0.60900  -0.60371  -0.60145  -0.58992
 Alpha  occ. eigenvalues --   -0.58146  -0.57402  -0.56902  -0.56067  -0.55975
 Alpha  occ. eigenvalues --   -0.54310  -0.52733  -0.51568  -0.51374  -0.50764
 Alpha  occ. eigenvalues --   -0.50292  -0.49722  -0.48143  -0.46510
 Alpha virt. eigenvalues --   -0.09510  -0.08366  -0.06153  -0.05510  -0.04645
 Alpha virt. eigenvalues --   -0.04481  -0.03469  -0.03319  -0.02978  -0.02589
 Alpha virt. eigenvalues --   -0.01887  -0.01408  -0.01251  -0.01070  -0.00498

 Mulliken charges:
               1
     1  C    1.315777
     2  C    0.699658
     3  C    1.351220
     4  N   -0.478793
     5  C    0.378581
     6  C    0.488754
     7  C    1.042046
     8  N   -1.140436
     9  C    1.227311
    10  C    0.738736
    11  C    0.913418
    12  O   -0.489330
    13  O   -0.466169
    14  O   -0.674101
    15  O   -0.407856
    16  H   -0.467812
    17  H   -0.231732
    18  H   -0.244014
    19  H   -0.295851
    20  H   -0.505328
    21  H   -0.471539
    22  H   -0.933355
    23  H   -1.294643
    24  H   -0.699483
    25  H   -0.628262
    26  H   -0.931341
    27  C    1.228844
    28  H    0.228164
    29  H    0.319928
    30  H    0.230382
    31  H    0.411034
    32  H    0.221751
    33  H    0.225798
    34  H    0.188092
    35  H    0.303492
    36  H    0.168433
    37  O   -0.312824
    38  H    0.189851
    39  H    0.170551
    40  H   -0.110821
    41  H   -0.116567
    42  H   -0.141561
 Sum of Mulliken charges =   1.00000

 Dipole moment (field-independent basis, Debye):
    X=              1.2799    Y=              0.5146    Z=              0.6843  Tot=              1.5399
 Quadrupole moment (field-independent basis, Debye-Ang):
   XX=            -48.2015   YY=            -80.9118   ZZ=            -83.7517
   XY=              5.8183   XZ=              5.0473   YZ=              3.1722

  Exact polarizability: 191.848 -11.196 168.901   4.043  10.487 146.246
 Approx polarizability: 197.955  -5.604 186.713   6.518  15.110 163.537

                      1                      2                      3
                      A                      A                      A
 Frequencies --     14.2134                27.6905                31.5526
 Red. masses --      5.3139                 3.9365                 2.1089
 Frc consts  --      0.0006                 0.0018                 0.0012
 IR Inten    --      0.7239                 1.5638                 0.5455

                      4                      5                      6
                      A                      A                      A
 Frequencies --     51.2034                58.7356                60.4403
 Red. masses --      3.6526                 5.1463                 5.4955
 Frc consts  --      0.0056                 0.0105                 0.0118
 IR Inten    --      0.8467                 1.4084                 1.1402

                      7                      8                      9
                      A                      A                      A
 Frequencies --     63.3610                73.0131                92.4588
 Red. masses --      4.4737                 5.1089                 4.9952
 Frc consts  --      0.0106                 0.0160                 0.0252
 IR Inten    --      1.5734                 2.0766                 4.1662

                     10                     11                     12
                      A                      A                      A
 Frequencies --    104.4587               114.3845               135.1530
 Red. masses --      5.4377                 4.4664                 2.4331
 Frc consts  --      0.0350                 0.0344                 0.0262
 IR Inten    --      1.2977                 3.1056                 0.4809

                     13                     14                     15
                      A                      A                      A
 Frequencies --    182.9264               195.3231               200.8229
 Red. masses --      4.7666                 2.3997                 4.6853
 Frc consts  --      0.0940                 0.0539                 0.1113
 IR Inten    --     19.7706                21.1172                 8.2900

                     16                     17                     18
                      A                      A                      A
 Frequencies --    216.1170               227.2317               229.0371
 Red. masses --      1.5825                 2.8774                 3.4994
 Frc consts  --      0.0435                 0.0875                 0.1082
 IR Inten    --     64.9167                 1.0859                 5.1786

                     19                     20                     21
                      A                      A                      A
 Frequencies --    236.4001               252.7398               261.4694
 Red. masses --      1.3322                 2.4019                 1.7902
 Frc consts  --      0.0439                 0.0904                 0.0721
 IR Inten    --      1.4394                20.9172                80.9279

                     22                     23                     24
                      A                      A                      A
 Frequencies --    263.2970               292.7348               296.9496
 Red. masses --      2.4024                 4.5655                 1.7224
 Frc consts  --      0.0981                 0.2305                 0.0895
 IR Inten    --      5.8672                13.4217                28.7271

                     25                     26                     27
                      A                      A                      A
 Frequencies --    305.0514               332.2494               369.9956
 Red. masses --      2.0947                 4.3736                 1.0688
 Frc consts  --      0.1148                 0.2845                 0.0862
 IR Inten    --     49.0774                 3.8270                 3.5327

                     28                     29                     30
                      A                      A                      A
 Frequencies --    388.4268               414.3444               431.1601
 Red. masses --      2.9114                 2.0667                 1.2933
 Frc consts  --      0.2588                 0.2090                 0.1417
 IR Inten    --      0.6701                10.5758                33.6284

                     31                     32                     33
                      A                      A                      A
 Frequencies --    438.6237               485.2647               511.8506
 Red. masses --      2.8857                 1.0629                 1.1052
 Frc consts  --      0.3271                 0.1475                 0.1706
 IR Inten    --     25.0570               135.1161                92.8840

                     34                     35                     36
                      A                      A                      A
 Frequencies --    543.8669               560.0198               603.8396
 Red. masses --      3.3767                 2.9440                 1.1684
 Frc consts  --      0.5885                 0.5440                 0.2510
 IR Inten    --      2.9618                 2.3457               117.3416

                     37                     38                     39
                      A                      A                      A
 Frequencies --    638.3126               642.1500               654.6223
 Red. masses --      3.4757                 1.0634                 3.5339
 Frc consts  --      0.8344                 0.2584                 0.8922
 IR Inten    --     10.2558                37.9106                12.8999

                     40                     41                     42
                      A                      A                      A
 Frequencies --    661.2589               680.6675               734.7274
 Red. masses --      1.1873                 5.6171                 1.8493
 Frc consts  --      0.3059                 1.5333                 0.5882
 IR Inten    --     14.9704                 1.0041                30.0623

                     43                     44                     45
                      A                      A                      A
 Frequencies --    738.1586               794.1332               805.3963
 Red. masses --      1.0632                 1.2519                 1.0832
 Frc consts  --      0.3413                 0.4652                 0.4140
 IR Inten    --    136.6458                 0.9343                83.9229

                     46                     47                     48
                      A                      A                      A
 Frequencies --    814.1665               819.8337               839.0692
 Red. masses --      1.3766                 1.4355                 1.7626
 Frc consts  --      0.5377                 0.5685                 0.7311
 IR Inten    --     64.8505                35.0722                13.1373

                     49                     50                     51
                      A                      A                      A
 Frequencies --    846.5125               917.8351               936.5531
 Red. masses --      1.0988                 2.8182                 2.6292
 Frc consts  --      0.4639                 1.3988                 1.3588
 IR Inten    --    194.2821                 6.0999                 4.0777

                     52                     53                     54
                      A                      A                      A
 Frequencies --    952.5159               975.8338               987.3916
 Red. masses --      1.8432                 1.1928                 1.2807
 Frc consts  --      0.9853                 0.6692                 0.7357
 IR Inten    --      4.6127                29.4976                12.9096

                     55                     56                     57
                      A                      A                      A
 Frequencies --    989.3041              1005.0749              1029.6327
 Red. masses --      1.5575                 1.7214                 1.4406
 Frc consts  --      0.8981                 1.0245                 0.8999
 IR Inten    --     11.4760                 7.9226                 0.3666

                     58                     59                     60
                      A                      A                      A
 Frequencies --   1046.2641              1054.2484              1064.5819
 Red. masses --      1.8771                 4.8896                 2.6934
 Frc consts  --      1.2107                 3.2019                 1.7985
 IR Inten    --     11.4000                 8.1061                 8.2588

                     61                     62                     63
                      A                      A                      A
 Frequencies --   1095.0565              1109.9910              1137.9766
 Red. masses --      2.1821                 2.3593                 1.2859
 Frc consts  --      1.5417                 1.7126                 0.9811
 IR Inten    --      6.8695                 2.4939                10.7261

                     64                     65                     66
                      A                      A                      A
 Frequencies --   1156.6411              1162.8005              1219.8654
 Red. masses --      1.3968                 3.0119                 1.7374
 Frc consts  --      1.1010                 2.3994                 1.5232
 IR Inten    --      8.9772                14.4576                 1.0107

                     67                     68                     69
                      A                      A                      A
 Frequencies --   1226.1037              1236.0747              1248.0037
 Red. masses --      1.4814                 1.6630                 1.3205
 Frc consts  --      1.3121                 1.4970                 1.2118
 IR Inten    --      5.2255                 4.9125                11.8587

                     70                     71                     72
                      A                      A                      A
 Frequencies --   1270.6869              1287.8404              1302.4354
 Red. masses --      1.5105                 1.2325                 1.5468
 Frc consts  --      1.4369                 1.2044                 1.5460
 IR Inten    --      2.6060                 3.8468                 1.6202

                     73                     74                     75
                      A                      A                      A
 Frequencies --   1317.5955              1337.0764              1369.1755
 Red. masses --      3.2108                 1.4052                 1.2570
 Frc consts  --      3.2842                 1.4802                 1.3884
 IR Inten    --      1.4387                 1.6516                 3.9644

                     76                     77                     78
                      A                      A                      A
 Frequencies --   1381.8131              1388.3887              1412.5645
 Red. masses --      1.4678                 1.4415                 1.5398
 Frc consts  --      1.6512                 1.6371                 1.8102
 IR Inten    --      1.6047                 4.2529                 1.8669

                     79                     80                     81
                      A                      A                      A
 Frequencies --   1457.2730              1481.1892              1485.3358
 Red. masses --      1.1770                 1.0478                 2.1138
 Frc consts  --      1.4727                 1.3543                 2.7477
 IR Inten    --      2.6965                 8.1314                25.7083

                     82                     83                     84
                      A                      A                      A
 Frequencies --   1486.5511              1489.6728              1501.7598
 Red. masses --      1.0864                 1.0742                 1.0904
 Frc consts  --      1.4145                 1.4045                 1.4489
 IR Inten    --      5.5010                 2.5934                16.5575

                     85                     86                     87
                      A                      A                      A
 Frequencies --   1520.2589              1539.3048              1552.2043
 Red. masses --      1.1340                 2.0724                 1.1679
 Frc consts  --      1.5442                 2.8931                 1.6579
 IR Inten    --     15.9748                13.8514                38.6346

                     88                     89                     90
                      A                      A                      A
 Frequencies --   1635.4433              1643.7073              1662.5340
 Red. masses --      1.1156                 1.1408                 1.2642
 Frc consts  --      1.7581                 1.8159                 2.0588
 IR Inten    --     76.6612                19.9161                32.5448

                     91                     92                     93
                      A                      A                      A
 Frequencies --   1665.2066              1673.1621              1682.0404
 Red. masses --      1.5888                 1.5098                 1.1154
 Frc consts  --      2.5957                 2.4903                 1.8593
 IR Inten    --     84.0122                93.2076                28.9494

                     94                     95                     96
                      A                      A                      A
 Frequencies --   1689.9321              1710.9729              2671.1872
 Red. masses --      4.4742                 1.0652                 1.1009
 Frc consts  --      7.5285                 1.8372                 4.6282
 IR Inten    --     26.0317                23.0330              1380.7462

                     97                     98                     99
                      A                      A                      A
 Frequencies --   3072.9768              3075.8958              3097.0289
 Red. masses --      1.0757                 1.0430                 1.0629
 Frc consts  --      5.9851                 5.8140                 6.0067
 IR Inten    --      1.8751                 4.0796                 7.5422

                    100                    101                    102
                      A                      A                      A
 Frequencies --   3106.1655              3116.6849              3157.9962
 Red. masses --      1.0632                 1.0635                 1.1061
 Frc consts  --      6.0439                 6.0865                 6.4991
 IR Inten    --      9.9637                 9.6616                 0.8919

                    103                    104                    105
                      A                      A                      A
 Frequencies --   3168.7299              3178.5368              3179.3453
 Red. masses --      1.1060                 1.1070                 1.1065
 Frc consts  --      6.5431                 6.5894                 6.5897
 IR Inten    --      2.3717                 0.5591                 8.2788

                    106                    107                    108
                      A                      A                      A
 Frequencies --   3188.8080              3198.2207              3211.0236
 Red. masses --      1.1071                 1.0916                 1.0859
 Frc consts  --      6.6326                 6.5787                 6.5966
 IR Inten    --      0.6693                12.7134               405.9499

                    109                    110                    111
                      A                      A                      A
 Frequencies --   3212.1589              3222.8368              3241.6569
 Red. masses --      1.0895                 1.0781                 1.0981
 Frc consts  --      6.6235                 6.5975                 6.7984
 IR Inten    --     59.4212               940.8268                20.4254

                    112                    113                    114
                      A                      A                      A
 Frequencies --   3468.1047              3528.6859              3563.1438
 Red. masses --      1.0653                 1.0511                 1.0741
 Frc consts  --      7.5496                 7.7111                 8.0343
 IR Inten    --    675.4292               178.8870              1034.4151

                    115                    116                    117
                      A                      A                      A
 Frequencies --   3614.4837              3658.8968              3930.4055
 Red. masses --      1.0663                 1.0590                 1.0665
 Frc consts  --      8.2079                 8.3527                 9.7070
 IR Inten    --    747.9308               296.5725               112.2076

                    118                    119                    120
                      A                      A                      A
 Frequencies --   3937.9591              3945.2253              3949.0249
 Red. masses --      1.0674                 1.0691                 1.0703
 Frc consts  --      9.7525                 9.8045                 9.8344
 IR Inten    --     72.2237               131.8947               110.3359

 - Thermochemistry -
 -------------------
 Temperature   298.150 Kelvin.  Pressure   1.00000 Atm.
 Atom     1 has atomic number  6 and mass  12.00000

 Molecular mass:   253.17635 amu.
 Principal axes and moments of inertia in atomic units:
                           1         2         3
     Eigenvalues --  3832.679605973.921226850.56324
           X            0.99996   0.00923   0.00168
           Y           -0.00927   0.99964   0.02501
           Z           -0.00145  -0.02502   0.99969
 This molecule is an asymmetric top.
 Rotational symmetry number  1.
 Warning -- assumption of classical behavior for rotation
           may cause significant error
 Rotational temperatures (Kelvin)      0.02260     0.01450     0.01264
 Rotational constants (GHZ):           0.47088     0.30210     0.26344
 Zero-point vibrational energy     974516.7 (Joules/Mol)
                                  232.91508 (Kcal/Mol)
 Warning -- explicit consideration of  36 degrees of freedom as
           vibrations may cause significant error
 Vibrational temperatures:     20.45    39.84    45.40    73.67    84.51
          (Kelvin)             86.96    91.16   105.05   133.03   150.29
                              164.57   194.45   263.19   281.03   288.94
                              310.94   326.94   329.53   340.13   363.64
                              376.20   378.83   421.18   427.24   438.90
                              478.03   532.34   558.86   596.15   620.34
                              631.08   698.19   736.44   782.50   805.74
                              868.79   918.39   923.91   941.86   951.40
                              979.33  1057.11  1062.05  1142.58  1158.79
                             1171.40  1179.56  1207.23  1217.94  1320.56
                             1347.49  1370.46  1404.01  1420.64  1423.39
                             1446.08  1481.41  1505.34  1516.83  1531.70
                             1575.54  1597.03  1637.29  1664.15  1673.01
                             1755.11  1764.09  1778.44  1795.60  1828.23
                             1852.92  1873.91  1895.73  1923.75  1969.94
                             1988.12  1997.58  2032.37  2096.69  2131.10
                             2137.07  2138.82  2143.31  2160.70  2187.31
                             2214.72  2233.28  2353.04  2364.93  2392.02
                             2395.86  2407.31  2420.08  2431.44  2461.71
                             3843.24  4421.33  4425.53  4455.93  4469.08
                             4484.21  4543.65  4559.10  4573.21  4574.37
                             4587.98  4601.53  4619.95  4621.58  4636.94
                             4664.02  4989.83  5076.99  5126.57  5200.44
                             5264.34  5654.98  5665.84  5676.30  5681.77

 Zero-point correction=                           0.371174 (Hartree/Particle)
 Thermal correction to Energy=                    0.394976
 Thermal correction to Enthalpy=                  0.395920
 Thermal correction to Gibbs Free Energy=         0.316225
 Sum of electronic and zero-point Energies=           -881.111786
 Sum of electronic and thermal Energies=              -881.087984
 Sum of electronic and thermal Enthalpies=            -881.087040
 Sum of electronic and thermal Free Energies=         -881.166735

                     E (Thermal)             CV                S
                      KCal/Mol        Cal/Mol-Kelvin    Cal/Mol-Kelvin
 Total                  247.851             85.457            167.732
 Electronic               0.000              0.000              0.000
 Translational            0.889              2.981             42.487
 Rotational               0.889              2.981             33.417
 Vibrational            246.074             79.496             91.829
 Vibration     1          0.593              1.986              7.313
 Vibration     2          0.593              1.984              5.988
 Vibration     3          0.594              1.983              5.729
 Vibration     4          0.595              1.977              4.770
 Vibration     5          0.596              1.974              4.499
 Vibration     6          0.597              1.973              4.443
 Vibration     7          0.597              1.972              4.350
 Vibration     8          0.599              1.967              4.070
 Vibration     9          0.602              1.955              3.607
 Vibration    10          0.605              1.946              3.369
 Vibration    11          0.607              1.938              3.193
 Vibration    12          0.613              1.918              2.871
 Vibration    13          0.630              1.863              2.298
 Vibration    14          0.636              1.846              2.177
 Vibration    15          0.638              1.839              2.126
 Vibration    16          0.645              1.816              1.991
 Vibration    17          0.651              1.800              1.901
 Vibration    18          0.652              1.797              1.886
 Vibration    19          0.655              1.785              1.830
 Vibration    20          0.664              1.758              1.711
 Vibration    21          0.669              1.743              1.652
 Vibration    22          0.670              1.740              1.640
 Vibration    23          0.688              1.687              1.458
 Vibration    24          0.691              1.679              1.434
 Vibration    25          0.696              1.664              1.389
 Vibration    26          0.714              1.611              1.249
 Vibration    27          0.742              1.534              1.080
 Vibration    28          0.757              1.495              1.006
 Vibration    29          0.778              1.439              0.911
 Vibration    30          0.792              1.402              0.855
 Vibration    31          0.799              1.386              0.831
 Vibration    32          0.841              1.283              0.696
 Vibration    33          0.867              1.224              0.629
 Vibration    34          0.899              1.153              0.557
 Vibration    35          0.916              1.118              0.524
 Vibration    36          0.962              1.024              0.443

                           ! Non-Optimized Parameters !
 Normal termination of Gaussian 16 at Fri Sep  4 22:19:07 2020.
