 Gaussian 16, Revision A.03,
 Gaussian 16:  ES64L-G16RevA.03 25-Dec-2016

 -----------------------------
 # wB97XD/aug-cc-pVDZ opt freq
 -----------------------------

 ----
 blah
 ----
 Symbolic Z-matrix:
 Charge =  1 Multiplicity = 1

 SCF Done:  E(RwB97XD) =  -881.466606700     A.U. after   16 cycles
 SCF Done:  E(RwB97XD) =  -881.467347595     A.U. after   14 cycles
 SCF Done:  E(RwB97XD) =  -881.466531970     A.U. after   15 cycles
 SCF Done:  E(RwB97XD) =  -881.467655576     A.U. after   12 cycles
 SCF Done:  E(RwB97XD) =  -881.467620816     A.U. after   15 cycles
 SCF Done:  E(RwB97XD) =  -881.467855559     A.U. after   14 cycles
 SCF Done:  E(RwB97XD) =  -881.467845630     A.U. after   12 cycles
 SCF Done:  E(RwB97XD) =  -881.467970584     A.U. after   11 cycles
 SCF Done:  E(RwB97XD) =  -881.468001800     A.U. after   11 cycles
 SCF Done:  E(RwB97XD) =  -881.468007104     A.U. after   12 cycles
 SCF Done:  E(RwB97XD) =  -881.468190928     A.U. after   10 cycles
 SCF Done:  E(RwB97XD) =  -881.468192724     A.U. after   10 cycles
 SCF Done:  E(RwB97XD) =  -881.468193052     A.U. after    9 cycles
 SCF Done:  E(RwB97XD) =  -881.468193374     A.U. after    9 cycles
 SCF Done:  E(RwB97XD) =  -881.468193268     A.U. after    9 cycles
 SCF Done:  E(RwB97XD) =  -881.468193506     A.U. after    9 cycles
 SCF Done:  E(RwB97XD) =  -881.468193592     A.U. after    9 cycles
 SCF Done:  E(RwB97XD) =  -881.468193637     A.U. after    8 cycles
 SCF Done:  E(RwB97XD) =  -881.468193656     A.U. after    7 cycles
 Optimization completed.
    -- Stationary point found.
 Normal termination of Gaussian 16 at Tue Dec  6 15:55:23 2022.

 ----------------------------------------------------------------------
 #N Geom=AllCheck Guess=TCheck SCRF=Check GenChk RwB97XD/Aug-CC-pVDZ Fr
 eq
 ----------------------------------------------------------------------

 Structure from the checkpoint file:  "/gscratch/scrubbed/gds001/Gau-25945.chk"
 ----
 blah
 ----
 Charge =  1 Multiplicity = 1

                         Standard orientation:
 ---------------------------------------------------------------------
 Center     Atomic      Atomic             Coordinates (Angstroms)
 Number     Number       Type             X           Y           Z
 ---------------------------------------------------------------------
      1          6           0        1.882742    2.463864   -0.622463
      2          6           0        1.525346    1.122223   -0.475588
      3          6           0        0.196328    0.847821   -0.169389
      4          7           0       -0.691107    1.836452   -0.014134
      5          6           0       -0.363796    3.128703   -0.152555
      6          6           0        0.936167    3.477278   -0.469213
      7          6           0        2.530259    0.009473   -0.654187
      8          7           0        2.561106   -0.934538    0.471128
      9          6           0        3.393206   -2.038492   -0.029423
     10          6           0        2.905198   -2.254369   -1.468660
     11          6           0        2.272367   -0.900083   -1.869200
     12          8           0       -2.953958    1.042727    0.885259
     13          8           0       -1.535870   -0.582695    2.522403
     14          8           0        0.097860   -2.131359    0.963723
     15          1           0        3.280808   -2.919305    0.614637
     16          1           0        3.731462   -2.537283   -2.128363
     17          1           0        2.159297   -3.055438   -1.515156
     18          1           0        2.706121   -0.473158   -2.779507
     19          1           0        1.193713   -1.006487   -2.036220
     20          1           0        4.459376   -1.746676   -0.015977
     21          1           0        3.528420    0.478407   -0.760498
     22          1           0       -0.188534   -0.161423   -0.031554
     23          1           0       -1.161663    3.850876    0.003202
     24          1           0        1.205549    4.524618   -0.582291
     25          1           0        2.915775    2.722791   -0.856457
     26          6           0        3.057373   -0.356117    1.714026
     27          1           0       -1.698474    1.549410    0.282731
     28          1           0        1.008965   -1.770647    0.817511
     29          1           0        0.150977   -3.087503    0.909037
     30          1           0       -2.685818    0.367605    1.537829
     31          1           0       -3.726894    0.715125    0.376062
     32          1           0       -1.684053   -0.876789    3.423126
     33          1           0       -0.982696   -1.260436    2.089057
     34          8           0       -5.079880    0.318658   -0.597635
     35          1           0       -5.878541    0.838720   -0.484309
     36          1           0       -5.377490   -0.587017   -0.798234
     37          1           0        3.091107   -1.131689    2.487717
     38          1           0        2.381041    0.436227    2.057432
     39          1           0        4.072210    0.064911    1.594145
     40          8           0       -5.902248   -2.265354   -1.209890
     41          1           0       -6.169630   -2.494372   -2.104078
     42          1           0       -6.439399   -2.811473   -0.629756
 ---------------------------------------------------------------------

 SCF Done:  E(RwB97XD) =  -881.468193656     A.U. after    1 cycles

 The electronic state is 1-A.
 Alpha  occ. eigenvalues --  -19.39118 -19.37798 -19.36819 -19.36472 -19.36000
 Alpha  occ. eigenvalues --  -14.65273 -14.57599 -10.49523 -10.49120 -10.46617
 Alpha  occ. eigenvalues --  -10.46123 -10.45778 -10.45625 -10.43063 -10.42626
 Alpha  occ. eigenvalues --  -10.41021 -10.40253  -1.24031  -1.23466  -1.22313
 Alpha  occ. eigenvalues --   -1.21383  -1.20742  -1.19624  -1.16992  -1.07009
 Alpha  occ. eigenvalues --   -1.03336  -1.00065  -0.95141  -0.89191  -0.88942
 Alpha  occ. eigenvalues --   -0.87750  -0.81213  -0.79276  -0.78707  -0.73797
 Alpha  occ. eigenvalues --   -0.73669  -0.73550  -0.72988  -0.72629  -0.71932
 Alpha  occ. eigenvalues --   -0.71645  -0.70288  -0.69084  -0.67543  -0.66498
 Alpha  occ. eigenvalues --   -0.64949  -0.63784  -0.63052  -0.62041  -0.61002
 Alpha  occ. eigenvalues --   -0.60499  -0.60155  -0.58293  -0.57830  -0.56745
 Alpha  occ. eigenvalues --   -0.56327  -0.55870  -0.55355  -0.54764  -0.53541
 Alpha  occ. eigenvalues --   -0.52241  -0.51891  -0.51552  -0.51381  -0.50460
 Alpha  occ. eigenvalues --   -0.50110  -0.49603  -0.48192  -0.43994
 Alpha virt. eigenvalues --   -0.12432  -0.09819  -0.05695  -0.04991  -0.04595
 Alpha virt. eigenvalues --   -0.03939  -0.03552  -0.02727  -0.02647  -0.02340
 Alpha virt. eigenvalues --   -0.01644  -0.01417  -0.00983  -0.00771  -0.00493

 Mulliken charges:
               1
     1  C    1.254777
     2  C    0.739424
     3  C    0.583623
     4  N    0.012300
     5  C    0.804037
     6  C    0.314869
     7  C    1.424460
     8  N   -1.259562
     9  C    1.260266
    10  C    0.802738
    11  C    1.029506
    12  O   -0.469097
    13  O   -0.401555
    14  O   -0.447385
    15  H   -0.568265
    16  H   -0.272783
    17  H   -0.287343
    18  H   -0.520698
    19  H   -0.295778
    20  H   -0.558883
    21  H   -0.852962
    22  H   -1.296899
    23  H   -0.641582
    24  H   -0.566012
    25  H   -0.912162
    26  C    0.944518
    27  H    0.154607
    28  H    0.535705
    29  H    0.158913
    30  H    0.215357
    31  H    0.244178
    32  H    0.164990
    33  H    0.263163
    34  O   -0.353590
    35  H    0.127880
    36  H    0.223472
    37  H   -0.211012
    38  H   -0.149117
    39  H   -0.175819
    40  O   -0.313658
    41  H    0.146689
    42  H    0.148688
 Sum of Mulliken charges =   1.00000

 Dipole moment (field-independent basis, Debye):
    X=             -1.7950    Y=             -0.3552    Z=             -1.1234  Tot=              2.1472
 Quadrupole moment (field-independent basis, Debye-Ang):
   XX=            -24.0198   YY=            -60.2620   ZZ=            -91.1640
   XY=             16.6256   XZ=              5.1777   YZ=             -2.8588

  Exact polarizability: 185.557 -10.482 190.669  -7.895  -1.256 142.257
 Approx polarizability: 194.408  -2.119 200.787  -9.084  -2.121 156.289

                      1                      2                      3
                      A                      A                      A
 Frequencies --     10.0921                11.5599                22.7331
 Red. masses --      4.5998                 4.9576                 4.0254
 Frc consts  --      0.0003                 0.0004                 0.0012
 IR Inten    --      0.9127                 1.1652                 0.3879

                      4                      5                      6
                      A                      A                      A
 Frequencies --     27.7025                37.1163                50.1986
 Red. masses --      5.3646                 4.8174                 4.7152
 Frc consts  --      0.0024                 0.0039                 0.0070
 IR Inten    --      0.5038                 2.7620                 0.9648

                      7                      8                      9
                      A                      A                      A
 Frequencies --     55.2162                74.5099                82.7121
 Red. masses --      4.8414                 2.9546                 4.1588
 Frc consts  --      0.0087                 0.0097                 0.0168
 IR Inten    --      0.4530                 0.9355                 1.7390

                     10                     11                     12
                      A                      A                      A
 Frequencies --     93.2797                98.0105               107.8755
 Red. masses --      3.9546                 4.1664                 1.0593
 Frc consts  --      0.0203                 0.0236                 0.0073
 IR Inten    --      2.4077                 3.7713                33.6733

                     13                     14                     15
                      A                      A                      A
 Frequencies --    120.2939               157.3999               167.3458
 Red. masses --      4.1939                 2.0779                 4.8919
 Frc consts  --      0.0358                 0.0303                 0.0807
 IR Inten    --      2.4573                 1.1982                 1.8224

                     16                     17                     18
                      A                      A                      A
 Frequencies --    171.0011               203.9596               206.7718
 Red. masses --      4.5921                 1.6802                 1.7604
 Frc consts  --      0.0791                 0.0412                 0.0443
 IR Inten    --     35.6065                17.0104                21.0679

                     19                     20                     21
                      A                      A                      A
 Frequencies --    217.7345               222.0264               226.2370
 Red. masses --      1.1822                 2.4510                 1.3658
 Frc consts  --      0.0330                 0.0712                 0.0412
 IR Inten    --    168.0452                63.7573                94.9302

                     22                     23                     24
                      A                      A                      A
 Frequencies --    232.7571               245.7590               249.2356
 Red. masses --      1.2280                 1.2130                 1.1162
 Frc consts  --      0.0392                 0.0432                 0.0409
 IR Inten    --     65.8069                 8.2467                34.5397

                     25                     26                     27
                      A                      A                      A
 Frequencies --    260.7308               265.1494               284.5195
 Red. masses --      3.0941                 2.9014                 5.2051
 Frc consts  --      0.1239                 0.1202                 0.2483
 IR Inten    --     57.2813                 5.6595                26.6753

                     28                     29                     30
                      A                      A                      A
 Frequencies --    313.4557               353.6993               401.1569
 Red. masses --      4.1647                 5.4564                 2.8497
 Frc consts  --      0.2411                 0.4022                 0.2702
 IR Inten    --      2.9086                26.9015                 9.4444

                     31                     32                     33
                      A                      A                      A
 Frequencies --    413.9919               422.7621               425.3855
 Red. masses --      2.7182                 1.8239                 1.4355
 Frc consts  --      0.2745                 0.1921                 0.1530
 IR Inten    --     16.5177                20.6314                15.4943

                     34                     35                     36
                      A                      A                      A
 Frequencies --    449.9272               543.2184               549.1016
 Red. masses --      1.1165                 1.1459                 3.2451
 Frc consts  --      0.1332                 0.1992                 0.5765
 IR Inten    --     36.4914                20.4549                 1.6395

                     37                     38                     39
                      A                      A                      A
 Frequencies --    581.4824               634.8716               648.1774
 Red. masses --      2.9256                 4.7080                 3.2713
 Frc consts  --      0.5828                 1.1180                 0.8098
 IR Inten    --      0.6099                48.3912                 2.2058

                     40                     41                     42
                      A                      A                      A
 Frequencies --    673.8206               684.3510               717.1280
 Red. masses --      5.3892                 1.0773                 1.7292
 Frc consts  --      1.4417                 0.2973                 0.5239
 IR Inten    --      8.4832                22.9234                66.3151

                     43                     44                     45
                      A                      A                      A
 Frequencies --    734.6704               742.5310               781.7738
 Red. masses --      1.0808                 1.1752                 1.4235
 Frc consts  --      0.3437                 0.3818                 0.5126
 IR Inten    --    191.5836               163.3917                 2.5857

                     46                     47                     48
                      A                      A                      A
 Frequencies --    823.0109               837.4503               840.9718
 Red. masses --      1.1274                 1.7675                 1.6090
 Frc consts  --      0.4499                 0.7303                 0.6705
 IR Inten    --    129.0912                19.6852                56.5862

                     49                     50                     51
                      A                      A                      A
 Frequencies --    851.7532               876.2699               934.0719
 Red. masses --      1.1217                 1.0837                 2.2594
 Frc consts  --      0.4795                 0.4902                 1.1614
 IR Inten    --     29.1281                34.9106                12.7307

                     52                     53                     54
                      A                      A                      A
 Frequencies --    941.3334               954.7200               984.3660
 Red. masses --      2.0722                 2.4198                 1.5160
 Frc consts  --      1.0818                 1.2995                 0.8655
 IR Inten    --     20.0013                21.0222                 1.2145

                     55                     56                     57
                      A                      A                      A
 Frequencies --    993.5103              1015.1290              1035.6265
 Red. masses --      1.4799                 1.6691                 1.3737
 Frc consts  --      0.8606                 1.0134                 0.8680
 IR Inten    --      5.3267                 9.7527                 1.1102

                     58                     59                     60
                      A                      A                      A
 Frequencies --   1039.9891              1054.6787              1075.0641
 Red. masses --      4.0029                 2.3530                 1.8373
 Frc consts  --      2.5508                 1.5421                 1.2512
 IR Inten    --     17.2580                 1.3313                15.8851

                     61                     62                     63
                      A                      A                      A
 Frequencies --   1093.5192              1118.2505              1143.4713
 Red. masses --      2.1840                 2.3262                 1.2842
 Frc consts  --      1.5387                 1.7138                 0.9893
 IR Inten    --     12.1102                 9.5730                 4.4315

                     64                     65                     66
                      A                      A                      A
 Frequencies --   1150.9683              1198.1309              1215.0494
 Red. masses --      1.4961                 1.8442                 1.3339
 Frc consts  --      1.1677                 1.5598                 1.1603
 IR Inten    --      6.0239                15.5454                 7.5563

                     67                     68                     69
                      A                      A                      A
 Frequencies --   1227.1630              1243.2333              1258.0972
 Red. masses --      1.4432                 1.7115                 1.8530
 Frc consts  --      1.2805                 1.5586                 1.7281
 IR Inten    --      5.8671                 8.1288                10.1702

                     70                     71                     72
                      A                      A                      A
 Frequencies --   1264.0862              1292.8354              1298.6387
 Red. masses --      1.7408                 1.5305                 1.4012
 Frc consts  --      1.6389                 1.5072                 1.3923
 IR Inten    --     12.8856                 3.6481                10.8974

                     73                     74                     75
                      A                      A                      A
 Frequencies --   1322.8172              1328.2231              1341.2215
 Red. masses --      1.5980                 1.3661                 1.4255
 Frc consts  --      1.6475                 1.4200                 1.5109
 IR Inten    --     13.9715                 2.3451                43.6335

                     76                     77                     78
                      A                      A                      A
 Frequencies --   1359.6717              1377.7904              1382.8076
 Red. masses --      1.3618                 1.7231                 1.5254
 Frc consts  --      1.4834                 1.9272                 1.7185
 IR Inten    --      5.6137                13.7866                 4.3416

                     79                     80                     81
                      A                      A                      A
 Frequencies --   1408.7180              1448.2285              1456.7691
 Red. masses --      1.7521                 1.3652                 1.4438
 Frc consts  --      2.0487                 1.6870                 1.8052
 IR Inten    --      7.3572                 7.8151                21.7018

                     82                     83                     84
                      A                      A                      A
 Frequencies --   1483.0343              1485.2870              1489.4838
 Red. masses --      1.0471                 1.0700                 1.0717
 Frc consts  --      1.3568                 1.3908                 1.4009
 IR Inten    --     13.8993                 7.0515                 5.0586

                     85                     86                     87
                      A                      A                      A
 Frequencies --   1506.4170              1519.5959              1527.5265
 Red. masses --      1.0903                 1.4697                 1.4731
 Frc consts  --      1.4577                 1.9996                 2.0251
 IR Inten    --     10.5252                41.5081                21.5915

                     88                     89                     90
                      A                      A                      A
 Frequencies --   1610.8440              1629.5030              1638.9682
 Red. masses --      1.1402                 1.0997                 1.9151
 Frc consts  --      1.7431                 1.7204                 3.0310
 IR Inten    --    105.9850                81.8332                12.1556

                     91                     92                     93
                      A                      A                      A
 Frequencies --   1653.8983              1666.3506              1680.2673
 Red. masses --      1.1260                 1.1108                 1.1307
 Frc consts  --      1.8147                 1.8173                 1.8808
 IR Inten    --     39.9737                14.1121                13.8914

                     94                     95                     96
                      A                      A                      A
 Frequencies --   1707.7361              1732.7081              2393.5219
 Red. masses --      4.0445                 1.9808                 1.1381
 Frc consts  --      6.9496                 3.5039                 3.8415
 IR Inten    --      3.1807                63.8840              3436.9675

                     97                     98                     99
                      A                      A                      A
 Frequencies --   2967.5330              2995.7246              2999.4039
 Red. masses --      1.0834                 1.0508                 1.0706
 Frc consts  --      5.6213                 5.5562                 5.6749
 IR Inten    --     46.2813                41.3395                85.5866

                    100                    101                    102
                      A                      A                      A
 Frequencies --   3088.6937              3104.1289              3110.3217
 Red. masses --      1.0633                 1.0674                 1.0858
 Frc consts  --      5.9765                 6.0595                 6.1887
 IR Inten    --     14.9980                16.1485                16.9251

                    103                    104                    105
                      A                      A                      A
 Frequencies --   3119.1632              3144.5361              3153.5309
 Red. masses --      1.0903                 1.1047                 1.1040
 Frc consts  --      6.2497                 6.4361                 6.4687
 IR Inten    --     21.2412                 1.8525                13.1504

                    106                    107                    108
                      A                      A                      A
 Frequencies --   3163.7850              3209.3607              3225.5795
 Red. masses --      1.1057                 1.0924                 1.0960
 Frc consts  --      6.5207                 6.6293                 6.7183
 IR Inten    --     23.6730                 0.2951                19.6434

                    109                    110                    111
                      A                      A                      A
 Frequencies --   3243.6609              3258.2745              3282.2041
 Red. masses --      1.0925                 1.1006                 1.0685
 Frc consts  --      6.7722                 6.8840                 6.7818
 IR Inten    --      0.8608                 1.4102              1197.5678

                    112                    113                    114
                      A                      A                      A
 Frequencies --   3491.9598              3583.3522              3632.2415
 Red. masses --      1.0589                 1.0659                 1.0667
 Frc consts  --      7.6076                 8.0638                 8.2916
 IR Inten    --   1138.9619               715.5756               548.6814

                    115                    116                    117
                      A                      A                      A
 Frequencies --   3660.6592              3876.9038              3946.2916
 Red. masses --      1.0624                 1.0452                 1.0673
 Frc consts  --      8.3880                 9.2562                 9.7930
 IR Inten    --    484.4566                23.8280                88.9831

                    118                    119                    120
                      A                      A                      A
 Frequencies --   3949.8200              3956.2695              3983.4875
 Red. masses --      1.0696                 1.0694                 1.0828
 Frc consts  --      9.8319                 9.8621                10.1232
 IR Inten    --     99.5114               116.7429               106.8570

 - Thermochemistry -
 -------------------
 Temperature   298.150 Kelvin.  Pressure   1.00000 Atm.
 Atom     1 has atomic number  6 and mass  12.00000

 Molecular mass:   253.17635 amu.
 Principal axes and moments of inertia in atomic units:
                           1         2         3
     Eigenvalues --  4166.726798739.32736**********
           X            0.99999  -0.00119   0.00297
           Y            0.00117   0.99998   0.00592
           Z           -0.00298  -0.00592   0.99998
 This molecule is an asymmetric top.
 Rotational symmetry number  1.
 Warning -- assumption of classical behavior for rotation
           may cause significant error
 Rotational temperatures (Kelvin)      0.02079     0.00991     0.00827
 Rotational constants (GHZ):           0.43313     0.20651     0.17227
 Zero-point vibrational energy     963191.8 (Joules/Mol)
                                  230.20837 (Kcal/Mol)
 Warning -- explicit consideration of  37 degrees of freedom as
           vibrations may cause significant error
 Vibrational temperatures:     14.52    16.63    32.71    39.86    53.40
          (Kelvin)             72.22    79.44   107.20   119.00   134.21
                              141.02   155.21   173.08   226.46   240.77
                              246.03   293.45   297.50   313.27   319.45
                              325.50   334.89   353.59   358.59   375.13
                              381.49   409.36   450.99   508.89   577.18
                              595.64   608.26   612.03   647.34   781.57
                              790.03   836.62   913.44   932.58   969.48
                              984.63  1031.79  1057.03  1068.34  1124.80
                             1184.13  1204.90  1209.97  1225.48  1260.76
                             1343.92  1354.37  1373.63  1416.28  1429.44
                             1460.54  1490.04  1496.31  1517.45  1546.78
                             1573.33  1608.91  1645.20  1655.99  1723.84
                             1748.19  1765.61  1788.74  1810.12  1818.74
                             1860.10  1868.45  1903.24  1911.02  1929.72
                             1956.26  1982.33  1989.55  2026.83  2083.68
                             2095.97  2133.76  2137.00  2143.03  2167.40
                             2186.36  2197.77  2317.65  2344.49  2358.11
                             2379.59  2397.51  2417.53  2457.05  2492.98
                             3443.74  4269.62  4310.18  4315.47  4443.94
                             4466.15  4475.06  4487.78  4524.29  4537.23
                             4551.98  4617.55  4640.89  4666.90  4687.93
                             4722.36  5024.15  5155.64  5225.99  5266.87
                             5578.00  5677.83  5682.91  5692.19  5731.35

 Zero-point correction=                           0.366860 (Hartree/Particle)
 Thermal correction to Energy=                    0.392378
 Thermal correction to Enthalpy=                  0.393322
 Thermal correction to Gibbs Free Energy=         0.306736
 Sum of electronic and zero-point Energies=           -881.101333
 Sum of electronic and thermal Energies=              -881.075816
 Sum of electronic and thermal Enthalpies=            -881.074871
 Sum of electronic and thermal Free Energies=         -881.161458

                     E (Thermal)             CV                S
                      KCal/Mol        Cal/Mol-Kelvin    Cal/Mol-Kelvin
 Total                  246.221             88.023            182.236
 Electronic               0.000              0.000              0.000
 Translational            0.889              2.981             42.487
 Rotational               0.889              2.981             34.300
 Vibrational            244.443             82.061            105.449
 Vibration     1          0.593              1.987              7.993
 Vibration     2          0.593              1.987              7.723
 Vibration     3          0.593              1.985              6.380
 Vibration     4          0.593              1.984              5.987
 Vibration     5          0.594              1.982              5.407
 Vibration     6          0.595              1.978              4.810
 Vibration     7          0.596              1.975              4.621
 Vibration     8          0.599              1.966              4.031
 Vibration     9          0.600              1.961              3.825
 Vibration    10          0.602              1.954              3.590
 Vibration    11          0.603              1.951              3.494
 Vibration    12          0.606              1.943              3.307
 Vibration    13          0.609              1.932              3.096
 Vibration    14          0.621              1.894              2.581
 Vibration    15          0.624              1.883              2.465
 Vibration    16          0.626              1.878              2.424
 Vibration    17          0.640              1.834              2.097
 Vibration    18          0.641              1.830              2.072
 Vibration    19          0.646              1.814              1.978
 Vibration    20          0.648              1.808              1.943
 Vibration    21          0.650              1.801              1.909
 Vibration    22          0.654              1.791              1.858
 Vibration    23          0.660              1.770              1.761
 Vibration    24          0.662              1.764              1.736
 Vibration    25          0.669              1.745              1.657
 Vibration    26          0.671              1.737              1.628
 Vibration    27          0.683              1.702              1.506
 Vibration    28          0.701              1.648              1.344
 Vibration    29          0.730              1.568              1.150
 Vibration    30          0.767              1.468              0.958
 Vibration    31          0.778              1.440              0.913
 Vibration    32          0.785              1.421              0.883
 Vibration    33          0.787              1.415              0.874
 Vibration    34          0.809              1.361              0.796
 Vibration    35          0.898              1.155              0.558
 Vibration    36          0.904              1.142              0.546
 Vibration    37          0.938              1.071              0.483

                           ! Non-Optimized Parameters !
 Normal termination of Gaussian 16 at Tue Dec  6 17:14:58 2022.
