 Gaussian 16, Revision A.03,
 Gaussian 16:  ES64L-G16RevA.03 25-Dec-2016

 -----------------------------
 # wB97XD/aug-cc-pVDZ Opt Freq
 -----------------------------

 ------------------------------
 p-Py Nornicotine, N anti, 5H2O
 ------------------------------
 Symbolic Z-matrix:
 Charge =  1 Multiplicity = 1

 SCF Done:  E(RwB97XD) =  -881.480343981     A.U. after   15 cycles
 SCF Done:  E(RwB97XD) =  -881.480579183     A.U. after   14 cycles
 SCF Done:  E(RwB97XD) =  -881.480996482     A.U. after   16 cycles
 SCF Done:  E(RwB97XD) =  -881.481522802     A.U. after   12 cycles
 SCF Done:  E(RwB97XD) =  -881.481592477     A.U. after   15 cycles
 SCF Done:  E(RwB97XD) =  -881.481708060     A.U. after   11 cycles
 SCF Done:  E(RwB97XD) =  -881.481813133     A.U. after   12 cycles
 SCF Done:  E(RwB97XD) =  -881.481894682     A.U. after   14 cycles
 SCF Done:  E(RwB97XD) =  -881.481932731     A.U. after   13 cycles
 SCF Done:  E(RwB97XD) =  -881.481974833     A.U. after   12 cycles
 SCF Done:  E(RwB97XD) =  -881.481993785     A.U. after   12 cycles
 SCF Done:  E(RwB97XD) =  -881.481997403     A.U. after   12 cycles
 SCF Done:  E(RwB97XD) =  -881.481999515     A.U. after   10 cycles
 SCF Done:  E(RwB97XD) =  -881.482000052     A.U. after   11 cycles
 SCF Done:  E(RwB97XD) =  -881.482000401     A.U. after    9 cycles
 SCF Done:  E(RwB97XD) =  -881.482000467     A.U. after    9 cycles
 SCF Done:  E(RwB97XD) =  -881.482000559     A.U. after    8 cycles
 SCF Done:  E(RwB97XD) =  -881.482000653     A.U. after    9 cycles
 SCF Done:  E(RwB97XD) =  -881.482000676     A.U. after    8 cycles
 Optimization completed.
    -- Stationary point found.
 Normal termination of Gaussian 16 at Fri Sep  4 18:39:38 2020.

 ----------------------------------------------------------------------
 #N Geom=AllCheck Guess=TCheck SCRF=Check GenChk RwB97XD/Aug-CC-pVDZ Fr
 eq
 ----------------------------------------------------------------------

 Structure from the checkpoint file:  "NicPyrNa5h27.chk"
 ------------------------------
 p-Py Nornicotine, N anti, 5H2O
 ------------------------------
 Charge =  1 Multiplicity = 1

                         Standard orientation:
 ---------------------------------------------------------------------
 Center     Atomic      Atomic             Coordinates (Angstroms)
 Number     Number       Type             X           Y           Z
 ---------------------------------------------------------------------
      1          6           0        0.941980    2.809125    0.037135
      2          6           0        0.784096    1.468020   -0.319048
      3          6           0       -0.519481    0.988579   -0.472108
      4          7           0       -1.601544    1.749583   -0.291713
      5          6           0       -1.434726    3.029092    0.055771
      6          6           0       -0.180544    3.605451    0.231083
      7          6           0        1.991474    0.588585   -0.525122
      8          7           0        2.235116   -0.349676    0.627911
      9          6           0        3.313685   -1.259746    0.141429
     10          6           0        2.990024   -1.483690   -1.344566
     11          6           0        1.985919   -0.367962   -1.721432
     12          8           0        0.322684   -2.125087    0.918415
     13          8           0       -1.930845   -1.468594    2.241251
     14          8           0       -3.485995   -1.921367   -0.026752
     15          8           0       -1.141617   -2.374832   -1.380458
     16          1           0        4.271426   -0.744823    0.284896
     17          1           0        3.904569   -1.431322   -1.943082
     18          1           0        2.549006   -2.472800   -1.501113
     19          1           0        0.984209   -0.785638   -1.870146
     20          1           0        2.261775    0.165707   -2.635566
     21          1           0        3.299882   -2.169604    0.748250
     22          1           0        2.886358    1.226580   -0.567332
     23          1           0       -0.710423   -0.046692   -0.758730
     24          1           0       -2.343962    3.614622    0.195058
     25          1           0       -0.090096    4.654243    0.506374
     26          1           0        1.940374    3.232808    0.156355
     27          6           0        2.520112    0.296850    1.921965
     28          1           0        1.373617   -0.972796    0.749595
     29          1           0       -0.426084   -1.948462    1.529085
     30          1           0       -0.112351   -2.379803    0.081061
     31          1           0       -3.814484   -1.027222   -0.308597
     32          1           0       -4.250292   -2.502829   -0.014198
     33          1           0       -2.045794   -2.310429   -1.008128
     34          1           0       -1.169318   -3.085240   -2.025599
     35          1           0       -2.611904   -1.648904    1.565976
     36          1           0       -2.279593   -1.796381    3.073177
     37          8           0       -4.075043    0.557270   -0.665465
     38          1           0       -3.226671    1.049679   -0.556348
     39          1           0       -4.458006    0.845505   -1.497006
     40          1           0        3.401609    0.940563    1.822801
     41          1           0        2.710029   -0.480825    2.667754
     42          1           0        1.652412    0.889783    2.225519
 ---------------------------------------------------------------------

 SCF Done:  E(RwB97XD) =  -881.482000676     A.U. after    1 cycles

 The electronic state is 1-A.
 Alpha  occ. eigenvalues --  -19.38831 -19.38673 -19.37639 -19.37301 -19.36825
 Alpha  occ. eigenvalues --  -14.67050 -14.58264 -10.48886 -10.47253 -10.47132
 Alpha  occ. eigenvalues --  -10.46242 -10.46006 -10.44807 -10.44749 -10.43192
 Alpha  occ. eigenvalues --  -10.43021 -10.42924  -1.24462  -1.23893  -1.22697
 Alpha  occ. eigenvalues --   -1.22231  -1.20970  -1.20612  -1.17908  -1.05789
 Alpha  occ. eigenvalues --   -1.03680  -1.00806  -0.96202  -0.93423  -0.88120
 Alpha  occ. eigenvalues --   -0.85419  -0.84389  -0.82287  -0.77012  -0.74961
 Alpha  occ. eigenvalues --   -0.74295  -0.73865  -0.73298  -0.73092  -0.72348
 Alpha  occ. eigenvalues --   -0.71582  -0.71248  -0.69063  -0.68594  -0.66008
 Alpha  occ. eigenvalues --   -0.64687  -0.64414  -0.63011  -0.62274  -0.62014
 Alpha  occ. eigenvalues --   -0.61582  -0.61418  -0.60374  -0.59863  -0.59229
 Alpha  occ. eigenvalues --   -0.58195  -0.57321  -0.56930  -0.55968  -0.55752
 Alpha  occ. eigenvalues --   -0.54234  -0.52518  -0.51900  -0.51298  -0.50630
 Alpha  occ. eigenvalues --   -0.50373  -0.49588  -0.47583  -0.46466
 Alpha virt. eigenvalues --   -0.09407  -0.08282  -0.06227  -0.05584  -0.04708
 Alpha virt. eigenvalues --   -0.04466  -0.03505  -0.03179  -0.03114  -0.02673
 Alpha virt. eigenvalues --   -0.01998  -0.01560  -0.01251  -0.00731  -0.00488

 Mulliken charges:
               1
     1  C    1.420879
     2  C    0.539306
     3  C    1.262324
     4  N   -0.580036
     5  C    0.413690
     6  C    0.444737
     7  C    0.965924
     8  N   -1.241871
     9  C    1.274961
    10  C    0.761105
    11  C    1.127022
    12  O   -0.467611
    13  O   -0.322586
    14  O   -0.705678
    15  O   -0.471754
    16  H   -0.483565
    17  H   -0.221250
    18  H   -0.251372
    19  H   -0.424329
    20  H   -0.513144
    21  H   -0.514067
    22  H   -0.929110
    23  H   -0.969622
    24  H   -0.672671
    25  H   -0.625892
    26  H   -0.941101
    27  C    1.144031
    28  H    0.237933
    29  H    0.317063
    30  H    0.250622
    31  H    0.361726
    32  H    0.240271
    33  H    0.270799
    34  H    0.186805
    35  H    0.234300
    36  H    0.143858
    37  O   -0.357168
    38  H    0.303133
    39  H    0.131266
    40  H   -0.133846
    41  H   -0.116772
    42  H   -0.088309
 Sum of Mulliken charges =   1.00000

 Dipole moment (field-independent basis, Debye):
    X=              2.7479    Y=             -0.2601    Z=             -0.2185  Tot=              2.7688
 Quadrupole moment (field-independent basis, Debye-Ang):
   XX=            -53.3945   YY=            -71.9669   ZZ=            -87.5211
   XY=              8.8705   XZ=              5.2032   YZ=              3.4961

  Exact polarizability: 188.762 -10.125 180.969   1.372   9.664 140.287
 Approx polarizability: 197.543  -2.668 192.968   1.383  10.681 158.018

                      1                      2                      3
                      A                      A                      A
 Frequencies --     21.8626                26.4166                43.5977
 Red. masses --      4.8915                 4.1913                 4.8687
 Frc consts  --      0.0014                 0.0017                 0.0055
 IR Inten    --      0.2009                 0.5526                 1.7410

                      4                      5                      6
                      A                      A                      A
 Frequencies --     51.3197                55.1000                57.8345
 Red. masses --      3.1244                 3.8230                 3.9612
 Frc consts  --      0.0048                 0.0068                 0.0078
 IR Inten    --      0.4606                 0.0658                 2.0397

                      7                      8                      9
                      A                      A                      A
 Frequencies --     67.0627                76.9857                79.8261
 Red. masses --      5.1849                 3.5513                 4.8033
 Frc consts  --      0.0137                 0.0124                 0.0180
 IR Inten    --      2.5948                 0.5985                 4.4583

                     10                     11                     12
                      A                      A                      A
 Frequencies --     91.1156               105.1489               141.1127
 Red. masses --      5.8296                 4.1811                 2.3199
 Frc consts  --      0.0285                 0.0272                 0.0272
 IR Inten    --      4.7258                 3.0691                 1.2179

                     13                     14                     15
                      A                      A                      A
 Frequencies --    181.1406               191.3603               206.3971
 Red. masses --      5.2309                 4.7307                 5.8922
 Frc consts  --      0.1011                 0.1021                 0.1479
 IR Inten    --      5.9713                40.9116                 3.8060

                     16                     17                     18
                      A                      A                      A
 Frequencies --    224.7089               235.2911               238.0609
 Red. masses --      2.7313                 1.4376                 1.2935
 Frc consts  --      0.0813                 0.0469                 0.0432
 IR Inten    --      1.6983                21.6468                 2.4946

                     19                     20                     21
                      A                      A                      A
 Frequencies --    241.2497               258.1842               259.8241
 Red. masses --      2.3264                 2.5151                 4.4643
 Frc consts  --      0.0798                 0.0988                 0.1776
 IR Inten    --     24.0482                 2.7708                30.5307

                     22                     23                     24
                      A                      A                      A
 Frequencies --    266.1264               273.6294               322.2595
 Red. masses --      1.1575                 1.2627                 4.1268
 Frc consts  --      0.0483                 0.0557                 0.2525
 IR Inten    --    123.4413                43.7715                 0.6063

                     25                     26                     27
                      A                      A                      A
 Frequencies --    335.3508               337.7391               358.0674
 Red. masses --      4.1142                 4.6639                 1.0914
 Frc consts  --      0.2726                 0.3134                 0.0824
 IR Inten    --     17.7905                25.2942                 0.8475

                     28                     29                     30
                      A                      A                      A
 Frequencies --    384.2912               411.4541               445.1927
 Red. masses --      2.8725                 2.6082                 2.4094
 Frc consts  --      0.2499                 0.2602                 0.2814
 IR Inten    --      0.5019                 0.6333                31.4045

                     31                     32                     33
                      A                      A                      A
 Frequencies --    446.1316               507.5410               515.0831
 Red. masses --      1.2639                 1.1128                 1.2191
 Frc consts  --      0.1482                 0.1689                 0.1906
 IR Inten    --      0.7240               176.2474                61.7372

                     34                     35                     36
                      A                      A                      A
 Frequencies --    546.7492               560.9883               594.1332
 Red. masses --      2.8932                 2.8411                 1.1034
 Frc consts  --      0.5096                 0.5268                 0.2295
 IR Inten    --      5.8560                14.2821                44.3594

                     37                     38                     39
                      A                      A                      A
 Frequencies --    620.7559               637.3080               655.6030
 Red. masses --      1.0768                 3.4314                 5.7684
 Frc consts  --      0.2445                 0.8211                 1.4608
 IR Inten    --     15.1528                 2.7154                 9.6930

                     40                     41                     42
                      A                      A                      A
 Frequencies --    680.9802               728.7562               736.2170
 Red. masses --      5.7791                 1.1581                 1.5964
 Frc consts  --      1.5790                 0.3624                 0.5098
 IR Inten    --      0.3887                24.3892                44.1522

                     43                     44                     45
                      A                      A                      A
 Frequencies --    761.2512               789.8717               795.3327
 Red. masses --      1.0620                 1.0804                 1.2308
 Frc consts  --      0.3626                 0.3971                 0.4587
 IR Inten    --     51.5152                28.8711                 4.8526

                     46                     47                     48
                      A                      A                      A
 Frequencies --    814.4399               834.9655               840.6669
 Red. masses --      2.1148                 1.0992                 1.7357
 Frc consts  --      0.8265                 0.4515                 0.7227
 IR Inten    --      2.8188               267.1244                44.5810

                     49                     50                     51
                      A                      A                      A
 Frequencies --    884.9880               921.9325               934.9878
 Red. masses --      1.0986                 2.9095                 2.5057
 Frc consts  --      0.5070                 1.4570                 1.2906
 IR Inten    --     40.4025                13.7712                 9.1130

                     52                     53                     54
                      A                      A                      A
 Frequencies --    951.4474               968.1610               980.7804
 Red. masses --      1.8538                 1.0484                 1.3737
 Frc consts  --      0.9887                 0.5790                 0.7786
 IR Inten    --      2.0573               104.7392                 1.5887

                     55                     56                     57
                      A                      A                      A
 Frequencies --    990.7260              1002.9307              1031.4905
 Red. masses --      1.6560                 1.7175                 1.4361
 Frc consts  --      0.9577                 1.0178                 0.9003
 IR Inten    --      4.1486                 7.2453                 0.1968

                     58                     59                     60
                      A                      A                      A
 Frequencies --   1045.2489              1051.6470              1063.1800
 Red. masses --      1.8619                 4.9450                 2.6761
 Frc consts  --      1.1985                 3.2222                 1.7822
 IR Inten    --     12.0809                10.0690                 8.0721

                     61                     62                     63
                      A                      A                      A
 Frequencies --   1092.1802              1110.1516              1136.9695
 Red. masses --      2.2270                 2.3144                 1.3084
 Frc consts  --      1.5651                 1.6806                 0.9966
 IR Inten    --      3.2209                 3.0889                 4.2762

                     64                     65                     66
                      A                      A                      A
 Frequencies --   1158.7136              1165.1775              1218.1665
 Red. masses --      1.4051                 2.9580                 1.7919
 Frc consts  --      1.1115                 2.3661                 1.5667
 IR Inten    --      8.1200                15.4108                 2.3394

                     67                     68                     69
                      A                      A                      A
 Frequencies --   1226.8070              1235.7731              1246.6944
 Red. masses --      1.4776                 1.6547                 1.3036
 Frc consts  --      1.3102                 1.4888                 1.1937
 IR Inten    --      8.1303                 4.4383                12.6308

                     70                     71                     72
                      A                      A                      A
 Frequencies --   1270.3089              1287.1169              1302.4281
 Red. masses --      1.5191                 1.2411                 1.9742
 Frc consts  --      1.4443                 1.2114                 1.9731
 IR Inten    --      2.8514                 4.0530                 1.0549

                     73                     74                     75
                      A                      A                      A
 Frequencies --   1316.5607              1335.8949              1368.9766
 Red. masses --      2.2354                 1.4101                 1.2433
 Frc consts  --      2.2829                 1.4827                 1.3729
 IR Inten    --      1.9773                 1.5910                 3.1740

                     76                     77                     78
                      A                      A                      A
 Frequencies --   1379.3830              1383.5300              1414.2421
 Red. masses --      1.5006                 1.3364                 1.5765
 Frc consts  --      1.6823                 1.5072                 1.8578
 IR Inten    --      3.5386                 0.7548                 2.1350

                     79                     80                     81
                      A                      A                      A
 Frequencies --   1452.9911              1483.1028              1484.2562
 Red. masses --      1.1850                 1.1709                 1.8202
 Frc consts  --      1.4740                 1.5174                 2.3626
 IR Inten    --      2.4170                18.0519                19.5029

                     82                     83                     84
                      A                      A                      A
 Frequencies --   1487.9726              1491.2615              1501.2522
 Red. masses --      1.0517                 1.0782                 1.0973
 Frc consts  --      1.3720                 1.4127                 1.4571
 IR Inten    --      4.0407                 2.0178                20.7149

                     85                     86                     87
                      A                      A                      A
 Frequencies --   1518.4159              1533.6980              1537.7835
 Red. masses --      1.1553                 1.2428                 1.8621
 Frc consts  --      1.5694                 1.7225                 2.5944
 IR Inten    --     27.2211                48.1070                10.7047

                     88                     89                     90
                      A                      A                      A
 Frequencies --   1645.2291              1652.1174              1655.2397
 Red. masses --      1.1270                 1.0941                 1.1030
 Frc consts  --      1.7973                 1.7595                 1.7805
 IR Inten    --     11.7336                82.0592                24.5869

                     91                     92                     93
                      A                      A                      A
 Frequencies --   1664.0804              1668.9261              1685.6924
 Red. masses --      4.1367                 1.1001                 3.2796
 Frc consts  --      6.7492                 1.8053                 5.4907
 IR Inten    --     42.9802                81.6465                13.3408

                     94                     95                     96
                      A                      A                      A
 Frequencies --   1688.8129              1739.1308              2669.9693
 Red. masses --      1.2363                 1.0648                 1.1001
 Frc consts  --      2.0776                 1.8974                 4.6206
 IR Inten    --     46.0598                51.3077              1515.4159

                     97                     98                     99
                      A                      A                      A
 Frequencies --   3070.1078              3078.2631              3098.2009
 Red. masses --      1.0852                 1.0345                 1.0635
 Frc consts  --      6.0264                 5.7754                 6.0144
 IR Inten    --      3.8741                 2.8009                 6.8459

                    100                    101                    102
                      A                      A                      A
 Frequencies --   3105.2873              3115.0097              3156.7530
 Red. masses --      1.0625                 1.0634                 1.1065
 Frc consts  --      6.0365                 6.0797                 6.4965
 IR Inten    --      6.0166                10.6379                 1.3661

                    103                    104                    105
                      A                      A                      A
 Frequencies --   3169.5336              3178.5219              3180.0597
 Red. masses --      1.1059                 1.1065                 1.1066
 Frc consts  --      6.5458                 6.5867                 6.5935
 IR Inten    --      3.1303                 0.1740                 7.0929

                    106                    107                    108
                      A                      A                      A
 Frequencies --   3190.8502              3198.0331              3199.0721
 Red. masses --      1.1068                 1.0918                 1.0928
 Frc consts  --      6.6394                 6.5792                 6.5891
 IR Inten    --      1.5810                 7.7602                 3.4452

                    109                    110                    111
                      A                      A                      A
 Frequencies --   3208.4944              3239.1301              3259.4370
 Red. masses --      1.0926                 1.0981                 1.0670
 Frc consts  --      6.6267                 6.7884                 6.6789
 IR Inten    --      9.2973                 9.8438              1228.5988

                    112                    113                    114
                      A                      A                      A
 Frequencies --   3395.2636              3488.3999              3529.4498
 Red. masses --      1.0643                 1.0683                 1.0560
 Frc consts  --      7.2285                 7.6596                 7.7505
 IR Inten    --   1311.8282               212.9894               949.4540

                    115                    116                    117
                      A                      A                      A
 Frequencies --   3603.6438              3640.3525              3934.4325
 Red. masses --      1.0681                 1.0604                 1.0665
 Frc consts  --      8.1724                 8.2797                 9.7266
 IR Inten    --    538.8765               583.5516                76.3126

                    118                    119                    120
                      A                      A                      A
 Frequencies --   3939.8934              3942.8313              3948.0203
 Red. masses --      1.0682                 1.0672                 1.0697
 Frc consts  --      9.7693                 9.7746                 9.8238
 IR Inten    --    112.4633               126.5258                95.8021

 - Thermochemistry -
 -------------------
 Temperature   298.150 Kelvin.  Pressure   1.00000 Atm.
 Atom     1 has atomic number  6 and mass  12.00000

 Molecular mass:   253.17635 amu.
 Principal axes and moments of inertia in atomic units:
                           1         2         3
     Eigenvalues --  4157.370375677.025707659.64396
           X            0.99991   0.01276   0.00380
           Y           -0.01280   0.99986   0.01084
           Z           -0.00367  -0.01088   0.99993
 This molecule is an asymmetric top.
 Rotational symmetry number  1.
 Warning -- assumption of classical behavior for rotation
           may cause significant error
 Rotational temperatures (Kelvin)      0.02083     0.01526     0.01131
 Rotational constants (GHZ):           0.43411     0.31790     0.23562
 Zero-point vibrational energy     974717.6 (Joules/Mol)
                                  232.96309 (Kcal/Mol)
 Warning -- explicit consideration of  37 degrees of freedom as
           vibrations may cause significant error
 Vibrational temperatures:     31.46    38.01    62.73    73.84    79.28
          (Kelvin)             83.21    96.49   110.77   114.85   131.10
                              151.29   203.03   260.62   275.32   296.96
                              323.31   338.53   342.52   347.10   371.47
                              373.83   382.90   393.69   463.66   482.50
                              485.93   515.18   552.91   591.99   640.53
                              641.88   730.24   741.09   786.65   807.14
                              854.83   893.13   916.94   943.27   979.78
                             1048.52  1059.25  1095.27  1136.45  1144.31
                             1171.80  1201.33  1209.53  1273.30  1326.46
                             1345.24  1368.92  1392.97  1411.12  1425.43
                             1442.99  1484.08  1503.88  1513.09  1529.68
                             1571.40  1597.26  1635.85  1667.13  1676.43
                             1752.67  1765.10  1778.00  1793.72  1827.69
                             1851.87  1873.90  1894.24  1922.05  1969.65
                             1984.62  1990.59  2034.78  2090.53  2133.85
                             2135.51  2140.86  2145.59  2159.97  2184.66
                             2206.65  2212.53  2367.12  2377.03  2381.52
                             2394.24  2401.21  2425.34  2429.83  2502.22
                             3841.49  4417.20  4428.93  4457.62  4467.82
                             4481.80  4541.86  4560.25  4573.18  4575.40
                             4590.92  4601.26  4602.75  4616.31  4660.39
                             4689.60  4885.03  5019.03  5078.09  5184.84
                             5237.66  5660.77  5668.63  5672.85  5680.32

 Zero-point correction=                           0.371250 (Hartree/Particle)
 Thermal correction to Energy=                    0.394918
 Thermal correction to Enthalpy=                  0.395863
 Thermal correction to Gibbs Free Energy=         0.316761
 Sum of electronic and zero-point Energies=           -881.110750
 Sum of electronic and thermal Energies=              -881.087082
 Sum of electronic and thermal Enthalpies=            -881.086138
 Sum of electronic and thermal Free Energies=         -881.165239

                     E (Thermal)             CV                S
                      KCal/Mol        Cal/Mol-Kelvin    Cal/Mol-Kelvin
 Total                  247.815             85.110            166.482
 Electronic               0.000              0.000              0.000
 Translational            0.889              2.981             42.487
 Rotational               0.889              2.981             33.558
 Vibrational            246.038             79.148             90.438
 Vibration     1          0.593              1.985              6.457
 Vibration     2          0.593              1.985              6.082
 Vibration     3          0.595              1.980              5.089
 Vibration     4          0.596              1.977              4.766
 Vibration     5          0.596              1.976              4.625
 Vibration     6          0.596              1.974              4.530
 Vibration     7          0.598              1.970              4.238
 Vibration     8          0.599              1.965              3.966
 Vibration     9          0.600              1.963              3.895
 Vibration    10          0.602              1.955              3.636
 Vibration    11          0.605              1.945              3.357
 Vibration    12          0.615              1.912              2.789
 Vibration    13          0.630              1.865              2.317
 Vibration    14          0.634              1.852              2.215
 Vibration    15          0.641              1.831              2.075
 Vibration    16          0.649              1.803              1.921
 Vibration    17          0.655              1.787              1.838
 Vibration    18          0.656              1.782              1.817
 Vibration    19          0.658              1.777              1.794
 Vibration    20          0.667              1.749              1.674
 Vibration    21          0.668              1.746              1.663
 Vibration    22          0.672              1.735              1.621
 Vibration    23          0.676              1.722              1.573
 Vibration    24          0.707              1.631              1.299
 Vibration    25          0.716              1.605              1.234
 Vibration    26          0.718              1.600              1.223
 Vibration    27          0.733              1.559              1.130
 Vibration    28          0.753              1.504              1.022
 Vibration    29          0.775              1.445              0.921
 Vibration    30          0.805              1.371              0.810
 Vibration    31          0.805              1.369              0.808
 Vibration    32          0.863              1.233              0.640
 Vibration    33          0.870              1.217              0.621
 Vibration    34          0.902              1.147              0.551
 Vibration    35          0.917              1.116              0.522
 Vibration    36          0.952              1.044              0.460
 Vibration    37          0.981              0.988              0.415

                           ! Non-Optimized Parameters !
 Normal termination of Gaussian 16 at Fri Sep  4 20:13:42 2020.
