 Gaussian 16, Revision A.03,
 Gaussian 16:  ES64L-G16RevA.03 25-Dec-2016

 ---------------------------------------------
 # wB97XD/aug-cc-pVDZ opt freq temperature=130
 ---------------------------------------------

 --------
 Nicotine
 --------
 Symbolic Z-matrix:
 Charge =  1 Multiplicity = 1

 SCF Done:  E(RwB97XD) =  -881.469530744     A.U. after   15 cycles
 SCF Done:  E(RwB97XD) =  -881.470324325     A.U. after   12 cycles
 SCF Done:  E(RwB97XD) =  -881.468299564     A.U. after   15 cycles
 SCF Done:  E(RwB97XD) =  -881.470124160     A.U. after   12 cycles
 SCF Done:  E(RwB97XD) =  -881.470384230     A.U. after    9 cycles
 SCF Done:  E(RwB97XD) =  -881.470294701     A.U. after   12 cycles
 SCF Done:  E(RwB97XD) =  -881.470427501     A.U. after   12 cycles
 SCF Done:  E(RwB97XD) =  -881.470443639     A.U. after   11 cycles
 SCF Done:  E(RwB97XD) =  -881.470472133     A.U. after   10 cycles
 SCF Done:  E(RwB97XD) =  -881.470469875     A.U. after   11 cycles
 SCF Done:  E(RwB97XD) =  -881.470480799     A.U. after   10 cycles
 SCF Done:  E(RwB97XD) =  -881.470481307     A.U. after    9 cycles
 SCF Done:  E(RwB97XD) =  -881.470481834     A.U. after    9 cycles
 SCF Done:  E(RwB97XD) =  -881.470482027     A.U. after    9 cycles
 SCF Done:  E(RwB97XD) =  -881.470482113     A.U. after    8 cycles
 SCF Done:  E(RwB97XD) =  -881.470482204     A.U. after    8 cycles
 SCF Done:  E(RwB97XD) =  -881.470482269     A.U. after    8 cycles
 SCF Done:  E(RwB97XD) =  -881.470482299     A.U. after    8 cycles
 SCF Done:  E(RwB97XD) =  -881.470482323     A.U. after    7 cycles
 Optimization completed.
    -- Stationary point found.
 Normal termination of Gaussian 16 at Thu Jul 15 14:25:59 2021.

 ----------------------------------------------------------------------
 #N Geom=AllCheck Guess=TCheck SCRF=Check GenChk RwB97XD/Aug-CC-pVDZ Fr
 eq
 ----------------------------------------------------------------------

 Structure from the checkpoint file:  "NicPyWa5h17.chk"
 --------
 Nicotine
 --------
 Charge =  1 Multiplicity = 1

                         Standard orientation:
 ---------------------------------------------------------------------
 Center     Atomic      Atomic             Coordinates (Angstroms)
 Number     Number       Type             X           Y           Z
 ---------------------------------------------------------------------
      1          6           0        2.112165   -0.393795   -1.773111
      2          6           0        2.138721    0.713324   -0.697899
      3          7           0        2.752595    0.064438    0.473345
      4          6           0        3.834897   -0.747739   -0.099548
      5          6           0        3.182051   -1.411211   -1.311958
      6          6           0        0.806371    1.344986   -0.360316
      7          6           0        0.670759    2.728760   -0.233684
      8          6           0       -0.555577    3.302133    0.104039
      9          6           0       -1.638835    2.469573    0.308665
     10          7           0       -1.495854    1.142186    0.178308
     11          6           0       -0.329260    0.570014   -0.142537
     12          8           0       -3.594213   -0.310625    0.583648
     13          8           0       -2.997094   -2.903337    0.292319
     14          8           0       -0.334795   -2.782003   -0.393897
     15          8           0        1.073134   -1.804138    1.641584
     16          1           0        4.208822   -1.459497    0.646102
     17          1           0        3.913492   -1.637160   -2.093964
     18          1           0        2.708049   -2.353670   -1.014511
     19          1           0        2.333702    0.032859   -2.756846
     20          1           0        1.127981   -0.869400   -1.838354
     21          1           0        4.677488   -0.101178   -0.407975
     22          1           0        2.806929    1.526766   -1.041215
     23          1           0       -0.340067   -0.515817   -0.228980
     24          1           0       -2.632301    2.824398    0.573000
     25          1           0       -0.669554    4.378670    0.205381
     26          1           0        1.537014    3.369399   -0.401989
     27          6           0        3.211919    1.003521    1.488816
     28          1           0       -2.367729    0.515755    0.327615
     29          1           0        0.244114   -2.628426    0.384560
     30          1           0        0.057724   -3.497395   -0.899222
     31          1           0       -3.456751   -1.283557    0.530267
     32          1           0       -4.424138   -0.105009    0.115798
     33          1           0       -3.178871   -3.589520    0.938022
     34          1           0       -2.050887   -2.980819    0.060857
     35          1           0        1.706407   -1.127658    1.289227
     36          1           0        1.451379   -2.173179    2.441934
     37          8           0       -5.913787    0.470961   -0.705549
     38          1           0       -6.716000    0.565305   -0.184087
     39          1           0       -6.194912    0.086296   -1.540509
     40          1           0        3.705184    0.452832    2.298194
     41          1           0        2.359559    1.544111    1.918385
     42          1           0        3.930946    1.735267    1.077096
 ---------------------------------------------------------------------

 SCF Done:  E(RwB97XD) =  -881.470482323     A.U. after    1 cycles

 The electronic state is 1-A.
 Alpha  occ. eigenvalues --  -19.39681 -19.38193 -19.37658 -19.36662 -19.36474
 Alpha  occ. eigenvalues --  -14.65739 -14.57791 -10.49889 -10.49504 -10.46919
 Alpha  occ. eigenvalues --  -10.46340 -10.45951 -10.45928 -10.43102 -10.43030
 Alpha  occ. eigenvalues --  -10.40944 -10.40292  -1.24413  -1.23975  -1.23057
 Alpha  occ. eigenvalues --   -1.21719  -1.21187  -1.20036  -1.17109  -1.07286
 Alpha  occ. eigenvalues --   -1.03667  -1.00210  -0.95363  -0.89590  -0.89225
 Alpha  occ. eigenvalues --   -0.87929  -0.81376  -0.79507  -0.78935  -0.74370
 Alpha  occ. eigenvalues --   -0.74270  -0.73823  -0.73229  -0.73049  -0.72351
 Alpha  occ. eigenvalues --   -0.72010  -0.70376  -0.69075  -0.68069  -0.67071
 Alpha  occ. eigenvalues --   -0.65152  -0.64245  -0.63403  -0.62669  -0.61392
 Alpha  occ. eigenvalues --   -0.60873  -0.60150  -0.58800  -0.58335  -0.57071
 Alpha  occ. eigenvalues --   -0.56759  -0.55836  -0.55659  -0.55041  -0.53558
 Alpha  occ. eigenvalues --   -0.52629  -0.52406  -0.51796  -0.51613  -0.51059
 Alpha  occ. eigenvalues --   -0.50575  -0.50140  -0.48590  -0.44168
 Alpha virt. eigenvalues --   -0.12757  -0.10122  -0.05912  -0.05116  -0.04952
 Alpha virt. eigenvalues --   -0.04101  -0.03677  -0.02884  -0.02795  -0.02320
 Alpha virt. eigenvalues --   -0.02071  -0.01499  -0.01121  -0.00708  -0.00565

 Mulliken charges:
               1
     1  C    1.128614
     2  C    0.880002
     3  N   -1.551618
     4  C    1.339818
     5  C    0.886240
     6  C    0.452860
     7  C    1.388822
     8  C    0.262076
     9  C    0.866000
    10  N    0.009265
    11  C    1.112313
    12  O   -0.389666
    13  O   -0.343434
    14  O   -0.516045
    15  O   -0.397453
    16  H   -0.545722
    17  H   -0.291330
    18  H   -0.375274
    19  H   -0.488995
    20  H   -0.382290
    21  H   -0.474711
    22  H   -0.812156
    23  H   -1.124299
    24  H   -0.687180
    25  H   -0.581413
    26  H   -0.935632
    27  C    1.075512
    28  H    0.139603
    29  H    0.295492
    30  H    0.184890
    31  H    0.243755
    32  H    0.151435
    33  H    0.144379
    34  H    0.214202
    35  H    0.535737
    36  H    0.141853
    37  O   -0.332132
    38  H    0.153179
    39  H    0.155749
    40  H   -0.207039
    41  H   -0.174275
    42  H   -0.151132
 Sum of Mulliken charges =   1.00000

 Dipole moment (field-independent basis, Debye):
    X=             -1.6288    Y=              1.9646    Z=             -0.0910  Tot=              2.5537
 Quadrupole moment (field-independent basis, Debye-Ang):
   XX=            -32.8777   YY=            -66.1985   ZZ=            -94.9987
   XY=             -3.9801   XZ=              5.0789   YZ=             -1.9862

  Exact polarizability: 198.750  -7.987 183.024  -6.587   4.645 136.824
 Approx polarizability: 198.043  -2.011 197.458  -8.929   2.629 156.811

                      1                      2                      3
                      A                      A                      A
 Frequencies --     10.8853                24.7109                27.2663
 Red. masses --      4.8461                 4.2388                 4.7346
 Frc consts  --      0.0003                 0.0015                 0.0021
 IR Inten    --      1.1913                 0.2470                 2.1099

                      4                      5                      6
                      A                      A                      A
 Frequencies --     36.7410                49.3280                57.7715
 Red. masses --      4.9758                 3.8409                 5.2561
 Frc consts  --      0.0040                 0.0055                 0.0103
 IR Inten    --      1.3889                 1.3741                 1.0059

                      7                      8                      9
                      A                      A                      A
 Frequencies --     58.8745                69.4733                81.6911
 Red. masses --      4.2370                 3.3965                 4.5767
 Frc consts  --      0.0087                 0.0097                 0.0180
 IR Inten    --      1.0376                 0.3012                 6.4906

                     10                     11                     12
                      A                      A                      A
 Frequencies --     89.5615               102.4770               120.9202
 Red. masses --      4.5000                 4.4882                 2.6373
 Frc consts  --      0.0213                 0.0278                 0.0227
 IR Inten    --      1.0231                 1.8358                 6.8535

                     13                     14                     15
                      A                      A                      A
 Frequencies --    129.7989               170.4986               177.0024
 Red. masses --      1.2433                 4.7777                 2.3716
 Frc consts  --      0.0123                 0.0818                 0.0438
 IR Inten    --     26.1048                22.6290                 3.7949

                     16                     17                     18
                      A                      A                      A
 Frequencies --    184.8812               215.3246               224.4364
 Red. masses --      2.9503                 3.5996                 2.1155
 Frc consts  --      0.0594                 0.0983                 0.0628
 IR Inten    --      7.9634                 2.4381                55.0190

                     19                     20                     21
                      A                      A                      A
 Frequencies --    225.6429               237.8026               257.6573
 Red. masses --      1.5370                 1.1253                 1.8442
 Frc consts  --      0.0461                 0.0375                 0.0721
 IR Inten    --     38.5065                68.3614                 2.7214

                     22                     23                     24
                      A                      A                      A
 Frequencies --    263.0940               267.9951               271.6697
 Red. masses --      1.1824                 1.4960                 1.4373
 Frc consts  --      0.0482                 0.0633                 0.0625
 IR Inten    --     53.3974                81.8206                 0.3377

                     25                     26                     27
                      A                      A                      A
 Frequencies --    285.3772               305.7400               321.6035
 Red. masses --      2.8401                 4.9311                 1.1943
 Frc consts  --      0.1363                 0.2716                 0.0728
 IR Inten    --    145.0668                14.8845                90.8105

                     28                     29                     30
                      A                      A                      A
 Frequencies --    332.2595               344.6073               393.8827
 Red. masses --      4.2152                 4.6692                 2.7620
 Frc consts  --      0.2742                 0.3267                 0.2525
 IR Inten    --      1.6701                38.4078                 8.2473

                     31                     32                     33
                      A                      A                      A
 Frequencies --    409.0785               419.0108               433.1574
 Red. masses --      2.8351                 2.7476                 1.1048
 Frc consts  --      0.2795                 0.2842                 0.1221
 IR Inten    --     30.6048                 3.0400                26.9820

                     34                     35                     36
                      A                      A                      A
 Frequencies --    470.0808               544.5381               563.6772
 Red. masses --      1.0939                 1.6730                 2.0390
 Frc consts  --      0.1424                 0.2923                 0.3817
 IR Inten    --     51.8919                10.4367                 9.2274

                     37                     38                     39
                      A                      A                      A
 Frequencies --    586.3145               632.4654               650.7156
 Red. masses --      2.4037                 4.1500                 3.5038
 Frc consts  --      0.4868                 0.9781                 0.8741
 IR Inten    --      8.6035                42.7139                 7.8975

                     40                     41                     42
                      A                      A                      A
 Frequencies --    665.0382               678.2924               717.2876
 Red. masses --      4.4134                 1.0551                 1.9348
 Frc consts  --      1.1501                 0.2860                 0.5865
 IR Inten    --     10.3134                62.4315                29.4978

                     43                     44                     45
                      A                      A                      A
 Frequencies --    762.9236               775.6957               782.9093
 Red. masses --      1.0782                 1.5078                 1.1693
 Frc consts  --      0.3698                 0.5346                 0.4223
 IR Inten    --    249.8783                15.1932                89.4421

                     46                     47                     48
                      A                      A                      A
 Frequencies --    837.2284               843.4981               848.3734
 Red. masses --      1.3953                 1.2210                 1.8675
 Frc consts  --      0.5763                 0.5118                 0.7919
 IR Inten    --     23.7381                70.6138                 4.4134

                     49                     50                     51
                      A                      A                      A
 Frequencies --    916.5967               927.1699               931.6356
 Red. masses --      1.0804                 1.7303                 1.7829
 Frc consts  --      0.5348                 0.8764                 0.9117
 IR Inten    --    160.1180                 7.8111                33.0859

                     52                     53                     54
                      A                      A                      A
 Frequencies --    941.0929               957.5911               984.4803
 Red. masses --      1.3914                 2.3674                 1.3166
 Frc consts  --      0.7261                 1.2790                 0.7518
 IR Inten    --      3.9776                10.5970                 4.8925

                     55                     56                     57
                      A                      A                      A
 Frequencies --    987.9901              1010.0135              1033.0669
 Red. masses --      1.6042                 1.8658                 1.4142
 Frc consts  --      0.9226                 1.1214                 0.8893
 IR Inten    --      6.9317                 6.4342                 0.4038

                     58                     59                     60
                      A                      A                      A
 Frequencies --   1043.7084              1064.4448              1075.7852
 Red. masses --      3.7933                 2.3264                 1.8272
 Frc consts  --      2.4346                 1.5531                 1.2459
 IR Inten    --     12.4110                 5.6750                11.5919

                     61                     62                     63
                      A                      A                      A
 Frequencies --   1095.3533              1112.9678              1143.5524
 Red. masses --      2.1346                 2.2347                 1.2709
 Frc consts  --      1.5090                 1.6309                 0.9792
 IR Inten    --      6.6714                 6.9218                 6.7663

                     64                     65                     66
                      A                      A                      A
 Frequencies --   1151.6897              1193.5966              1214.4315
 Red. masses --      1.5253                 1.8405                 1.3493
 Frc consts  --      1.1920                 1.5449                 1.1725
 IR Inten    --      8.0947                10.7582                 7.2179

                     67                     68                     69
                      A                      A                      A
 Frequencies --   1230.8304              1242.3402              1255.6748
 Red. masses --      1.4362                 1.9118                 1.5134
 Frc consts  --      1.2819                 1.7385                 1.4059
 IR Inten    --      6.9045                16.2575                16.3220

                     70                     71                     72
                      A                      A                      A
 Frequencies --   1257.1142              1266.2250              1287.1220
 Red. masses --      1.1932                 1.7050                 1.6648
 Frc consts  --      1.1110                 1.6106                 1.6250
 IR Inten    --     21.3005                15.6181                10.0120

                     73                     74                     75
                      A                      A                      A
 Frequencies --   1306.6365              1328.2531              1333.5485
 Red. masses --      1.3357                 1.8612                 1.6651
 Frc consts  --      1.3436                 1.9346                 1.7447
 IR Inten    --      5.1389                10.9274                 0.6152

                     76                     77                     78
                      A                      A                      A
 Frequencies --   1362.7053              1375.7724              1383.6972
 Red. masses --      1.3328                 1.7637                 1.5358
 Frc consts  --      1.4582                 1.9668                 1.7324
 IR Inten    --      5.0885                17.4503                 4.8702

                     79                     80                     81
                      A                      A                      A
 Frequencies --   1406.2085              1450.3040              1460.8084
 Red. masses --      1.6739                 1.2438                 1.7325
 Frc consts  --      1.9502                 1.5414                 2.1783
 IR Inten    --     18.2533                 5.9389                35.0068

                     82                     83                     84
                      A                      A                      A
 Frequencies --   1485.4944              1487.3129              1491.2067
 Red. masses --      1.0594                 1.0623                 1.0704
 Frc consts  --      1.3774                 1.3846                 1.4024
 IR Inten    --      8.3901                11.9308                 8.9752

                     85                     86                     87
                      A                      A                      A
 Frequencies --   1505.5185              1518.2409              1528.1940
 Red. masses --      1.1065                 1.2902                 1.7061
 Frc consts  --      1.4776                 1.7522                 2.3475
 IR Inten    --      7.3588                17.9323                16.2890

                     88                     89                     90
                      A                      A                      A
 Frequencies --   1623.1622              1630.8645              1647.3857
 Red. masses --      1.0798                 1.0991                 1.6274
 Frc consts  --      1.6762                 1.7224                 2.6021
 IR Inten    --    105.0885                49.4882                32.4279

                     91                     92                     93
                      A                      A                      A
 Frequencies --   1652.7067              1675.2152              1682.1620
 Red. masses --      1.4213                 1.1855                 1.0845
 Frc consts  --      2.2873                 1.9602                 1.8081
 IR Inten    --      6.2380                11.4914                11.4216

                     94                     95                     96
                      A                      A                      A
 Frequencies --   1704.7273              1761.6833              2454.2596
 Red. masses --      4.0910                 1.5602                 1.1349
 Frc consts  --      7.0046                 2.8529                 4.0275
 IR Inten    --      1.1459                29.1254              3435.1164

                     97                     98                     99
                      A                      A                      A
 Frequencies --   2971.3159              2993.5405              2995.1323
 Red. masses --      1.0837                 1.0565                 1.0653
 Frc consts  --      5.6371                 5.5783                 5.6305
 IR Inten    --     45.4299                16.5534               119.2534

                    100                    101                    102
                      A                      A                      A
 Frequencies --   3095.0612              3105.1465              3108.8385
 Red. masses --      1.0640                 1.0637                 1.0851
 Frc consts  --      6.0053                 6.0425                 6.1792
 IR Inten    --     15.7678                17.5380                16.9013

                    103                    104                    105
                      A                      A                      A
 Frequencies --   3123.8151              3148.6804              3151.2031
 Red. masses --      1.0926                 1.1050                 1.1039
 Frc consts  --      6.2817                 6.4548                 6.4586
 IR Inten    --     16.9557                 0.1823                14.3801

                    106                    107                    108
                      A                      A                      A
 Frequencies --   3165.0629              3207.5972              3226.6187
 Red. masses --      1.1054                 1.0925                 1.0963
 Frc consts  --      6.5240                 6.6224                 6.7249
 IR Inten    --     23.1199                 0.5441                16.3428

                    109                    110                    111
                      A                      A                      A
 Frequencies --   3243.3450              3257.7403              3266.3717
 Red. masses --      1.0923                 1.1007                 1.0682
 Frc consts  --      6.7699                 6.8823                 6.7148
 IR Inten    --      0.5057                 1.4868              1189.0158

                    112                    113                    114
                      A                      A                      A
 Frequencies --   3440.3451              3499.7693              3598.0752
 Red. masses --      1.0637                 1.0621                 1.0598
 Frc consts  --      7.4180                 7.6649                 8.0840
 IR Inten    --    852.0152               741.9627               646.3406

                    115                    116                    117
                      A                      A                      A
 Frequencies --   3640.9601              3871.5635              3942.4301
 Red. masses --      1.0712                 1.0454                 1.0682
 Frc consts  --      8.3670                 9.2321                 9.7819
 IR Inten    --    762.9334                25.1382                97.9951

                    118                    119                    120
                      A                      A                      A
 Frequencies --   3948.7835              3949.4254              3975.3266
 Red. masses --      1.0681                 1.0682                 1.0825
 Frc consts  --      9.8125                 9.8168                10.0795
 IR Inten    --     29.7997               181.8236               107.4245

 - Thermochemistry -
 -------------------
 Temperature   130.000 Kelvin.  Pressure   1.00000 Atm.
 Atom     1 has atomic number  6 and mass  12.00000

 Molecular mass:   253.17635 amu.
 Principal axes and moments of inertia in atomic units:
                           1         2         3
     Eigenvalues --  3611.511847539.780959723.15822
           X            1.00000   0.00176   0.00226
           Y           -0.00177   0.99999   0.00491
           Z           -0.00225  -0.00491   0.99999
 This molecule is an asymmetric top.
 Rotational symmetry number  1.
 Warning -- assumption of classical behavior for rotation
           may cause significant error
 Rotational temperatures (Kelvin)      0.02398     0.01149     0.00891
 Rotational constants (GHZ):           0.49972     0.23936     0.18561
 Zero-point vibrational energy     965780.8 (Joules/Mol)
                                  230.82716 (Kcal/Mol)
 Warning -- explicit consideration of  23 degrees of freedom as
           vibrations may cause significant error
 Vibrational temperatures:     15.66    35.55    39.23    52.86    70.97
          (Kelvin)             83.12    84.71    99.96   117.54   128.86
                              147.44   173.98   186.75   245.31   254.67
                              266.00   309.80   322.91   324.65   342.14
                              370.71   378.53   385.59   390.87   410.59
                              439.89   462.72   478.05   495.81   566.71
                              588.57   602.86   623.22   676.34   783.47
                              811.01   843.58   909.98   936.23   956.84
                              975.91  1032.02  1097.68  1116.05  1126.43
                             1204.58  1213.61  1220.62  1318.78  1333.99
                             1340.42  1354.02  1377.76  1416.45  1421.50
                             1453.18  1486.35  1501.66  1531.50  1547.81
                             1575.97  1601.31  1645.32  1657.02  1717.32
                             1747.30  1770.89  1787.45  1806.64  1808.71
                             1821.82  1851.88  1879.96  1911.06  1918.68
                             1960.63  1979.43  1990.83  2023.22  2086.66
                             2101.78  2137.30  2139.91  2145.51  2166.11
                             2184.41  2198.73  2335.37  2346.45  2370.22
                             2377.88  2410.26  2420.26  2452.72  2534.67
                             3531.13  4275.06  4307.04  4309.33  4453.10
                             4467.61  4472.93  4494.47  4530.25  4533.88
                             4553.82  4615.02  4642.38  4666.45  4687.16
                             4699.58  4949.89  5035.39  5176.83  5238.53
                             5570.32  5672.28  5681.42  5682.34  5719.61

 Zero-point correction=                           0.367846 (Hartree/Particle)
 Thermal correction to Energy=                    0.374159
 Thermal correction to Enthalpy=                  0.374570
 Thermal correction to Gibbs Free Energy=         0.350005
 Sum of electronic and zero-point Energies=           -881.102636
 Sum of electronic and thermal Energies=              -881.096324
 Sum of electronic and thermal Enthalpies=            -881.095912
 Sum of electronic and thermal Free Energies=         -881.120477

                     E (Thermal)             CV                S
                      KCal/Mol        Cal/Mol-Kelvin    Cal/Mol-Kelvin
 Total                  234.788             50.588            118.576
 Electronic               0.000              0.000              0.000
 Translational            0.388              2.981             38.363
 Rotational               0.388              2.981             31.462
 Vibrational            234.013             44.626             48.750
 Vibration     1          0.259              1.985              6.194
 Vibration     2          0.260              1.975              4.570
 Vibration     3          0.260              1.972              4.376
 Vibration     4          0.262              1.960              3.789
 Vibration     5          0.265              1.939              3.214
 Vibration     6          0.267              1.921              2.909
 Vibration     7          0.267              1.918              2.873
 Vibration     8          0.271              1.892              2.558
 Vibration     9          0.276              1.857              2.254
 Vibration    10          0.279              1.832              2.084
 Vibration    11          0.285              1.787              1.840
 Vibration    12          0.296              1.715              1.550
 Vibration    13          0.301              1.678              1.430
 Vibration    14          0.331              1.489              0.996
 Vibration    15          0.336              1.457              0.941
 Vibration    16          0.343              1.418              0.878
 Vibration    17          0.370              1.264              0.674
 Vibration    18          0.379              1.217              0.622
 Vibration    19          0.380              1.211              0.616
 Vibration    20          0.393              1.150              0.554
 Vibration    21          0.413              1.051              0.466
 Vibration    22          0.419              1.025              0.444
 Vibration    23          0.425              1.001              0.425

                           ! Non-Optimized Parameters !
 Normal termination of Gaussian 16 at Thu Jul 15 15:53:34 2021.
