 Gaussian 16, Revision A.03,
 Gaussian 16:  ES64L-G16RevA.03 25-Dec-2016

 ---------------------------------------------
 # wB97XD/aug-cc-pVDZ opt freq temperature=130
 ---------------------------------------------

 --------
 Nicotine
 --------
 Symbolic Z-matrix:
 Charge =  1 Multiplicity = 1

 SCF Done:  E(RwB97XD) =  -881.478274503     A.U. after   15 cycles
 SCF Done:  E(RwB97XD) =  -881.479805599     A.U. after   12 cycles
 SCF Done:  E(RwB97XD) =  -881.479928128     A.U. after   12 cycles
 SCF Done:  E(RwB97XD) =  -881.480014395     A.U. after   13 cycles
 SCF Done:  E(RwB97XD) =  -881.480085710     A.U. after   12 cycles
 SCF Done:  E(RwB97XD) =  -881.480154816     A.U. after   12 cycles
 SCF Done:  E(RwB97XD) =  -881.480222511     A.U. after   12 cycles
 SCF Done:  E(RwB97XD) =  -881.480333309     A.U. after   12 cycles
 SCF Done:  E(RwB97XD) =  -881.480405099     A.U. after   12 cycles
 SCF Done:  E(RwB97XD) =  -881.480429775     A.U. after   13 cycles
 SCF Done:  E(RwB97XD) =  -881.480495096     A.U. after    9 cycles
 SCF Done:  E(RwB97XD) =  -881.480495668     A.U. after   10 cycles
 SCF Done:  E(RwB97XD) =  -881.480496047     A.U. after   10 cycles
 SCF Done:  E(RwB97XD) =  -881.480496282     A.U. after    9 cycles
 SCF Done:  E(RwB97XD) =  -881.480496472     A.U. after    9 cycles
 SCF Done:  E(RwB97XD) =  -881.480496551     A.U. after    8 cycles
 SCF Done:  E(RwB97XD) =  -881.480496573     A.U. after    8 cycles
 SCF Done:  E(RwB97XD) =  -881.480496611     A.U. after    8 cycles
 SCF Done:  E(RwB97XD) =  -881.480496615     A.U. after    9 cycles
 Optimization completed.
    -- Stationary point found.
 Normal termination of Gaussian 16 at Thu Jul 15 15:16:48 2021.

 ----------------------------------------------------------------------
 #N Geom=AllCheck Guess=TCheck SCRF=Check GenChk RwB97XD/Aug-CC-pVDZ Fr
 eq
 ----------------------------------------------------------------------

 Structure from the checkpoint file:  "NicPyrNa5h23.chk"
 --------
 Nicotine
 --------
 Charge =  1 Multiplicity = 1

                         Standard orientation:
 ---------------------------------------------------------------------
 Center     Atomic      Atomic             Coordinates (Angstroms)
 Number     Number       Type             X           Y           Z
 ---------------------------------------------------------------------
      1          6           0        1.075218    2.778667   -0.070079
      2          6           0        0.978681    1.416171   -0.353649
      3          6           0       -0.300055    0.874253   -0.488555
      4          7           0       -1.421670    1.581109   -0.344171
      5          6           0       -1.314930    2.885643   -0.073827
      6          6           0       -0.088314    3.529463    0.064980
      7          6           0        2.205822    0.553635   -0.494021
      8          7           0        2.339890   -0.445085    0.625282
      9          6           0        3.445886   -1.346034    0.187898
     10          6           0        3.240032   -1.500530   -1.327151
     11          6           0        2.301295   -0.339691   -1.736159
     12          8           0        0.356223   -2.172513    0.845598
     13          8           0       -1.679204   -1.079530    2.246348
     14          8           0       -3.102503   -0.607375   -0.071882
     15          8           0       -1.311691   -2.273545   -1.319926
     16          1           0        4.393185   -0.848861    0.429963
     17          1           0        4.201672   -1.453948   -1.847102
     18          1           0        2.784699   -2.467852   -1.560243
     19          1           0        1.308957   -0.719429   -2.004244
     20          1           0        2.675004    0.234043   -2.589248
     21          1           0        3.376098   -2.281062    0.751188
     22          1           0        3.100252    1.189373   -0.422292
     23          1           0       -0.433961   -0.181352   -0.723430
     24          1           0       -2.249215    3.436732    0.035482
     25          1           0       -0.049668    4.595715    0.278885
     26          1           0        2.051305    3.253406    0.040426
     27          6           0        2.516856    0.137493    1.968956
     28          1           0        1.464962   -1.059979    0.658588
     29          1           0       -0.335579   -1.881481    1.479260
     30          1           0       -0.158764   -2.404589    0.047110
     31          1           0       -2.763005    0.296971   -0.248679
     32          1           0       -4.068469   -0.583306   -0.192285
     33          1           0       -2.090272   -1.785647   -0.978500
     34          1           0       -1.650334   -3.027054   -1.808156
     35          1           0       -2.336536   -0.933421    1.536086
     36          1           0       -2.157617   -1.463363    2.984492
     37          8           0       -5.848172   -0.551881   -0.424185
     38          1           0       -6.316953   -0.634682   -1.258370
     39          1           0       -6.524618   -0.511074    0.256369
     40          1           0        3.410377    0.771977    1.977405
     41          1           0        2.630211   -0.676639    2.691003
     42          1           0        1.630576    0.727687    2.220509
 ---------------------------------------------------------------------

 SCF Done:  E(RwB97XD) =  -881.480496615     A.U. after    1 cycles

 The electronic state is 1-A.
 Alpha  occ. eigenvalues --  -19.39482 -19.37650 -19.37208 -19.36958 -19.36827
 Alpha  occ. eigenvalues --  -14.66777 -14.57740 -10.48554 -10.46933 -10.46719
 Alpha  occ. eigenvalues --  -10.45618 -10.45540 -10.44354 -10.44292 -10.42772
 Alpha  occ. eigenvalues --  -10.42770 -10.42575  -1.24077  -1.23873  -1.22676
 Alpha  occ. eigenvalues --   -1.21611  -1.21106  -1.20017  -1.17443  -1.05420
 Alpha  occ. eigenvalues --   -1.03285  -1.00426  -0.95798  -0.93015  -0.87715
 Alpha  occ. eigenvalues --   -0.85034  -0.83990  -0.82040  -0.76766  -0.74401
 Alpha  occ. eigenvalues --   -0.74289  -0.73603  -0.72935  -0.72485  -0.71836
 Alpha  occ. eigenvalues --   -0.71636  -0.70865  -0.68393  -0.68297  -0.65525
 Alpha  occ. eigenvalues --   -0.64210  -0.63967  -0.62822  -0.61938  -0.61696
 Alpha  occ. eigenvalues --   -0.61071  -0.60628  -0.59922  -0.59874  -0.58515
 Alpha  occ. eigenvalues --   -0.57851  -0.57438  -0.56611  -0.55649  -0.55358
 Alpha  occ. eigenvalues --   -0.53968  -0.52456  -0.51319  -0.50780  -0.50500
 Alpha  occ. eigenvalues --   -0.50260  -0.49054  -0.47170  -0.45948
 Alpha virt. eigenvalues --   -0.08869  -0.07845  -0.05918  -0.05429  -0.04369
 Alpha virt. eigenvalues --   -0.04226  -0.03750  -0.02996  -0.02767  -0.02243
 Alpha virt. eigenvalues --   -0.01801  -0.01698  -0.01056  -0.00757  -0.00393

 Mulliken charges:
               1
     1  C    1.219314
     2  C    0.946563
     3  C    0.980689
     4  N   -0.361817
     5  C    0.274400
     6  C    0.572584
     7  C    1.031180
     8  N   -1.150613
     9  C    1.274438
    10  C    0.758771
    11  C    1.088049
    12  O   -0.482849
    13  O   -0.339032
    14  O   -0.796158
    15  O   -0.394029
    16  H   -0.496856
    17  H   -0.234302
    18  H   -0.255162
    19  H   -0.325732
    20  H   -0.516253
    21  H   -0.496704
    22  H   -0.943747
    23  H   -1.313878
    24  H   -0.616134
    25  H   -0.628761
    26  H   -0.911724
    27  C    1.048543
    28  H    0.231656
    29  H    0.312182
    30  H    0.229316
    31  H    0.385684
    32  H    0.343757
    33  H    0.297663
    34  H    0.176563
    35  H    0.261758
    36  H    0.149771
    37  O   -0.306800
    38  H    0.139711
    39  H    0.136157
    40  H   -0.137366
    41  H   -0.102856
    42  H   -0.047975
 Sum of Mulliken charges =   1.00000

 Dipole moment (field-independent basis, Debye):
    X=             -0.0517    Y=              0.4385    Z=              0.4353  Tot=              0.6200
 Quadrupole moment (field-independent basis, Debye-Ang):
   XX=            -18.6818   YY=            -80.6399   ZZ=            -90.2491
   XY=              5.8039   XZ=              3.3042   YZ=              4.0784

  Exact polarizability: 190.280 -10.710 179.692  -0.407   7.341 139.828
 Approx polarizability: 197.822  -3.422 193.089   0.299   8.972 157.112

                      1                      2                      3
                      A                      A                      A
 Frequencies --     20.8938                28.0548                28.8554
 Red. masses --      4.3802                 6.4593                 4.8445
 Frc consts  --      0.0011                 0.0030                 0.0024
 IR Inten    --      2.4555                 1.4913                 0.7960

                      4                      5                      6
                      A                      A                      A
 Frequencies --     41.8264                48.6037                57.9494
 Red. masses --      3.6121                 2.1382                 4.4092
 Frc consts  --      0.0037                 0.0030                 0.0087
 IR Inten    --      1.3990                 0.1419                 2.1206

                      7                      8                      9
                      A                      A                      A
 Frequencies --     63.1733                77.5595                80.5976
 Red. masses --      4.1778                 5.1310                 4.6579
 Frc consts  --      0.0098                 0.0182                 0.0178
 IR Inten    --      0.1188                 3.6217                 5.4074

                     10                     11                     12
                      A                      A                      A
 Frequencies --     86.2847                97.9245               109.8866
 Red. masses --      1.0656                 5.2498                 4.4534
 Frc consts  --      0.0047                 0.0297                 0.0317
 IR Inten    --     14.6611                 0.8669                 2.0545

                     13                     14                     15
                      A                      A                      A
 Frequencies --    123.1703               141.3339               149.1527
 Red. masses --      1.0926                 2.4884                 4.5962
 Frc consts  --      0.0098                 0.0293                 0.0602
 IR Inten    --    200.4674                 1.4096                 9.2667

                     16                     17                     18
                      A                      A                      A
 Frequencies --    194.1892               204.7542               214.5503
 Red. masses --      4.3814                 4.8496                 4.9407
 Frc consts  --      0.0973                 0.1198                 0.1340
 IR Inten    --     37.8541                10.1973                 9.6241

                     19                     20                     21
                      A                      A                      A
 Frequencies --    227.2111               233.2556               240.3982
 Red. masses --      2.9800                 1.1791                 1.2020
 Frc consts  --      0.0906                 0.0378                 0.0409
 IR Inten    --     10.6330                 0.1386                59.4086

                     22                     23                     24
                      A                      A                      A
 Frequencies --    256.2854               257.6727               259.5090
 Red. masses --      1.7782                 1.8061                 2.9774
 Frc consts  --      0.0688                 0.0707                 0.1181
 IR Inten    --      2.0208                91.3928                 3.0026

                     25                     26                     27
                      A                      A                      A
 Frequencies --    271.5440               297.9957               315.1546
 Red. masses --      1.3135                 4.7113                 4.4988
 Frc consts  --      0.0571                 0.2465                 0.2633
 IR Inten    --     58.8458                 2.6823                 1.6147

                     28                     29                     30
                      A                      A                      A
 Frequencies --    330.2454               389.1489               415.4696
 Red. masses --      4.4703                 2.9441                 3.1408
 Frc consts  --      0.2872                 0.2627                 0.3194
 IR Inten    --      1.4329                 0.1824                 1.1764

                     31                     32                     33
                      A                      A                      A
 Frequencies --    442.0888               453.1058               492.8561
 Red. masses --      3.1090                 1.0547                 1.0650
 Frc consts  --      0.3580                 0.1276                 0.1524
 IR Inten    --     17.5906                63.7082                69.3978

                     34                     35                     36
                      A                      A                      A
 Frequencies --    538.9518               562.1882               600.7053
 Red. masses --      3.9039                 2.9198                 1.0701
 Frc consts  --      0.6681                 0.5437                 0.2275
 IR Inten    --      1.6146                 4.3664                 0.5324

                     37                     38                     39
                      A                      A                      A
 Frequencies --    635.0619               649.9520               677.8743
 Red. masses --      3.7119                 4.7170                 3.7205
 Frc consts  --      0.8820                 1.1740                 1.0073
 IR Inten    --      2.3501                 1.2962                12.5327

                     40                     41                     42
                      A                      A                      A
 Frequencies --    692.4112               725.7847               732.7463
 Red. masses --      1.2303                 1.0640                 1.8123
 Frc consts  --      0.3475                 0.3302                 0.5733
 IR Inten    --     65.3867                13.7462                40.3898

                     43                     44                     45
                      A                      A                      A
 Frequencies --    774.8956               779.7991               791.8916
 Red. masses --      1.0558                 1.0749                 1.2744
 Frc consts  --      0.3735                 0.3851                 0.4708
 IR Inten    --      2.7655               156.8662                 3.0762

                     46                     47                     48
                      A                      A                      A
 Frequencies --    819.6307               823.6614               837.0983
 Red. masses --      2.0408                 1.0554                 1.7379
 Frc consts  --      0.8078                 0.4218                 0.7175
 IR Inten    --     14.8217               113.6298                36.7914

                     49                     50                     51
                      A                      A                      A
 Frequencies --    874.2146               885.9985               920.1909
 Red. masses --      1.0975                 1.0769                 3.0531
 Frc consts  --      0.4942                 0.4981                 1.5231
 IR Inten    --    217.1879                91.0556                 6.5266

                     52                     53                     54
                      A                      A                      A
 Frequencies --    935.2639               950.5474               974.8740
 Red. masses --      2.4803                 1.8864                 1.3879
 Frc consts  --      1.2783                 1.0042                 0.7772
 IR Inten    --      6.3201                 3.5153                 1.8030

                     55                     56                     57
                      A                      A                      A
 Frequencies --    987.6854              1001.7438              1028.1804
 Red. masses --      1.5772                 1.8033                 1.4358
 Frc consts  --      0.9065                 1.0662                 0.8943
 IR Inten    --      2.4490                 6.8820                 0.2595

                     58                     59                     60
                      A                      A                      A
 Frequencies --   1044.5063              1054.2499              1062.9456
 Red. masses --      1.8838                 4.9660                 2.6756
 Frc consts  --      1.2109                 3.2520                 1.7811
 IR Inten    --     13.9337                10.3770                 7.3420

                     61                     62                     63
                      A                      A                      A
 Frequencies --   1090.3594              1109.2733              1136.5623
 Red. masses --      2.2189                 2.3258                 1.3050
 Frc consts  --      1.5543                 1.6862                 0.9932
 IR Inten    --      3.0392                 3.5743                 6.3833

                     64                     65                     66
                      A                      A                      A
 Frequencies --   1154.7343              1164.1708              1218.8351
 Red. masses --      1.4074                 2.8828                 1.7718
 Frc consts  --      1.1056                 2.3020                 1.5508
 IR Inten    --      6.4474                16.3620                 1.9219

                     67                     68                     69
                      A                      A                      A
 Frequencies --   1224.0622              1236.5573              1247.6735
 Red. masses --      1.4719                 1.6750                 1.3081
 Frc consts  --      1.2994                 1.5090                 1.1998
 IR Inten    --      6.9965                 4.2358                12.0738

                     70                     71                     72
                      A                      A                      A
 Frequencies --   1269.5442              1287.6076              1302.5827
 Red. masses --      1.5165                 1.2323                 1.6731
 Frc consts  --      1.4401                 1.2037                 1.6726
 IR Inten    --      2.9951                 4.2746                 1.2049

                     73                     74                     75
                      A                      A                      A
 Frequencies --   1316.9952              1336.5617              1369.2910
 Red. masses --      2.8773                 1.3985                 1.2474
 Frc consts  --      2.9403                 1.4719                 1.3780
 IR Inten    --      2.1376                 1.3319                 3.0553

                     76                     77                     78
                      A                      A                      A
 Frequencies --   1380.2629              1383.6170              1410.8642
 Red. masses --      1.5055                 1.3546                 1.5660
 Frc consts  --      1.6898                 1.5279                 1.8366
 IR Inten    --      4.5094                 2.4656                 1.6247

                     79                     80                     81
                      A                      A                      A
 Frequencies --   1453.0127              1481.5555              1482.9093
 Red. masses --      1.1852                 1.9416                 1.1265
 Frc consts  --      1.4743                 2.5110                 1.4596
 IR Inten    --      2.7717                31.5118                 5.0349

                     82                     83                     84
                      A                      A                      A
 Frequencies --   1486.7581              1489.9453              1500.8536
 Red. masses --      1.0484                 1.0795                 1.0954
 Frc consts  --      1.3654                 1.4119                 1.4537
 IR Inten    --      3.3808                 1.4880                19.2513

                     85                     86                     87
                      A                      A                      A
 Frequencies --   1518.3350              1537.0802              1545.8170
 Red. masses --      1.1441                 1.8673                 1.2479
 Frc consts  --      1.5540                 2.5992                 1.7569
 IR Inten    --     21.0893                24.3504                42.1175

                     88                     89                     90
                      A                      A                      A
 Frequencies --   1633.8745              1642.2739              1659.0938
 Red. masses --      1.0872                 1.1245                 1.6810
 Frc consts  --      1.7100                 1.7869                 2.7263
 IR Inten    --     90.0880                21.8251                34.3012

                     91                     92                     93
                      A                      A                      A
 Frequencies --   1663.0205              1669.5767              1675.0140
 Red. masses --      1.4874                 1.1105                 1.3149
 Frc consts  --      2.4236                 1.8238                 2.1737
 IR Inten    --     32.7419               110.6021                36.9952

                     94                     95                     96
                      A                      A                      A
 Frequencies --   1687.8476              1730.1828              2673.0462
 Red. masses --      4.4866                 1.0678                 1.1006
 Frc consts  --      7.5307                 1.8833                 4.6333
 IR Inten    --     47.8672                47.1834              1463.8749

                     97                     98                     99
                      A                      A                      A
 Frequencies --   3073.5365              3076.3251              3096.8978
 Red. masses --      1.0770                 1.0420                 1.0632
 Frc consts  --      5.9942                 5.8100                 6.0077
 IR Inten    --      3.1440                 3.0657                 7.2256

                    100                    101                    102
                      A                      A                      A
 Frequencies --   3104.8374              3115.6899              3157.2289
 Red. masses --      1.0630                 1.0634                 1.1062
 Frc consts  --      6.0374                 6.0821                 6.4967
 IR Inten    --      7.5575                 9.9254                 0.9877

                    103                    104                    105
                      A                      A                      A
 Frequencies --   3168.7987              3177.2167              3179.1494
 Red. masses --      1.1060                 1.1065                 1.1069
 Frc consts  --      6.5434                 6.5812                 6.5913
 IR Inten    --      2.6302                 0.2419                 8.4498

                    106                    107                    108
                      A                      A                      A
 Frequencies --   3189.2852              3199.0805              3207.2266
 Red. masses --      1.1069                 1.0914                 1.0923
 Frc consts  --      6.6336                 6.5812                 6.6199
 IR Inten    --      1.2597                 3.5517                 5.7114

                    109                    110                    111
                      A                      A                      A
 Frequencies --   3220.0698              3239.3747              3460.5073
 Red. masses --      1.0923                 1.0981                 1.0600
 Frc consts  --      6.6728                 6.7889                 7.4785
 IR Inten    --      7.6645                 2.3361               658.0354

                    112                    113                    114
                      A                      A                      A
 Frequencies --   3480.7008              3532.1190              3593.3242
 Red. masses --      1.0693                 1.0559                 1.0652
 Frc consts  --      7.6330                 7.7612                 8.1035
 IR Inten    --    140.9917               962.6243               887.6323

                    115                    116                    117
                      A                      A                      A
 Frequencies --   3598.8852              3667.8000              3882.7536
 Red. masses --      1.0700                 1.0674                 1.0452
 Frc consts  --      8.1654                 8.4603                 9.2836
 IR Inten    --    726.9012               720.0166                24.9079

                    118                    119                    120
                      A                      A                      A
 Frequencies --   3944.8324              3946.6841              3989.3811
 Red. masses --      1.0684                 1.0689                 1.0831
 Frc consts  --      9.7959                 9.8101                10.1559
 IR Inten    --    115.9798                85.1101               111.2108

 - Thermochemistry -
 -------------------
 Temperature   130.000 Kelvin.  Pressure   1.00000 Atm.
 Atom     1 has atomic number  6 and mass  12.00000

 Molecular mass:   253.17635 amu.
 Principal axes and moments of inertia in atomic units:
                           1         2         3
     Eigenvalues --  3712.312396869.804098466.63609
           X            1.00000   0.00245   0.00183
           Y           -0.00247   0.99990   0.01388
           Z           -0.00180  -0.01388   0.99990
 This molecule is an asymmetric top.
 Rotational symmetry number  1.
 Warning -- assumption of classical behavior for rotation
           may cause significant error
 Rotational temperatures (Kelvin)      0.02333     0.01261     0.01023
 Rotational constants (GHZ):           0.48615     0.26271     0.21316
 Zero-point vibrational energy     971877.4 (Joules/Mol)
                                  232.28427 (Kcal/Mol)
 Warning -- explicit consideration of  24 degrees of freedom as
           vibrations may cause significant error
 Vibrational temperatures:     30.06    40.36    41.52    60.18    69.93
          (Kelvin)             83.38    90.89   111.59   115.96   124.14
                              140.89   158.10   177.21   203.35   214.60
                              279.39   294.60   308.69   326.91   335.60
                              345.88   368.74   370.73   373.38   390.69
                              428.75   453.44   475.15   559.90   597.77
                              636.07   651.92   709.11   775.43   808.86
                              864.28   913.71   935.14   975.31   996.23
                             1044.24  1054.26  1114.90  1121.96  1139.36
                             1179.27  1185.07  1204.40  1257.80  1274.75
                             1323.95  1345.64  1367.63  1402.63  1421.06
                             1441.29  1479.32  1502.81  1516.83  1529.34
                             1568.78  1596.00  1635.26  1661.41  1674.98
                             1753.63  1761.15  1779.13  1795.12  1826.59
                             1852.58  1874.13  1894.86  1923.01  1970.10
                             1985.89  1990.72  2029.92  2090.56  2131.63
                             2133.58  2139.11  2143.70  2159.39  2184.55
                             2211.52  2224.09  2350.78  2362.87  2387.07
                             2392.72  2402.15  2409.97  2428.44  2489.35
                             3845.92  4422.13  4426.15  4455.75  4467.17
                             4482.78  4542.55  4559.19  4571.31  4574.09
                             4588.67  4602.76  4614.48  4632.96  4660.74
                             4978.90  5007.95  5081.93  5169.99  5177.99
                             5277.15  5586.42  5675.73  5678.40  5739.83

 Zero-point correction=                           0.370169 (Hartree/Particle)
 Thermal correction to Energy=                    0.376522
 Thermal correction to Enthalpy=                  0.376934
 Thermal correction to Gibbs Free Energy=         0.352651
 Sum of electronic and zero-point Energies=           -881.110328
 Sum of electronic and thermal Energies=              -881.103975
 Sum of electronic and thermal Enthalpies=            -881.103563
 Sum of electronic and thermal Free Energies=         -881.127846

                     E (Thermal)             CV                S
                      KCal/Mol        Cal/Mol-Kelvin    Cal/Mol-Kelvin
 Total                  236.271             50.551            117.212
 Electronic               0.000              0.000              0.000
 Translational            0.388              2.981             38.363
 Rotational               0.388              2.981             31.260
 Vibrational            235.496             44.590             47.589
 Vibration     1          0.259              1.978              4.901
 Vibration     2          0.260              1.971              4.319
 Vibration     3          0.261              1.970              4.264
 Vibration     4          0.263              1.952              3.535
 Vibration     5          0.265              1.940              3.243
 Vibration     6          0.267              1.920              2.904
 Vibration     7          0.269              1.908              2.738
 Vibration     8          0.274              1.870              2.351
 Vibration     9          0.275              1.861              2.279
 Vibration    10          0.278              1.843              2.153
 Vibration    11          0.283              1.804              1.922
 Vibration    12          0.289              1.759              1.716
 Vibration    13          0.297              1.706              1.519
 Vibration    14          0.309              1.627              1.289
 Vibration    15          0.314              1.591              1.202
 Vibration    16          0.351              1.371              0.810
 Vibration    17          0.360              1.318              0.739
 Vibration    18          0.370              1.268              0.678
 Vibration    19          0.382              1.203              0.607
 Vibration    20          0.388              1.173              0.576
 Vibration    21          0.395              1.137              0.541
 Vibration    22          0.412              1.058              0.471
 Vibration    23          0.414              1.051              0.465
 Vibration    24          0.415              1.042              0.458

                           ! Non-Optimized Parameters !
 Normal termination of Gaussian 16 at Thu Jul 15 16:48:35 2021.
