 Gaussian 16, Revision A.03,
 Gaussian 16:  ES64L-G16RevA.03 25-Dec-2016

 -----------------------------
 # wB97XD/aug-cc-pVDZ opt freq
 -----------------------------

 ----
 blah
 ----
 Symbolic Z-matrix:
 Charge =  1 Multiplicity = 1

 SCF Done:  E(RwB97XD) =  -881.474759018     A.U. after   14 cycles
 SCF Done:  E(RwB97XD) =  -881.478349139     A.U. after   16 cycles
 SCF Done:  E(RwB97XD) =  -881.480791413     A.U. after   14 cycles
 SCF Done:  E(RwB97XD) =  -881.480063888     A.U. after   13 cycles
 SCF Done:  E(RwB97XD) =  -881.482090919     A.U. after   13 cycles
 SCF Done:  E(RwB97XD) =  -881.482640273     A.U. after   13 cycles
 SCF Done:  E(RwB97XD) =  -881.482892071     A.U. after   12 cycles
 SCF Done:  E(RwB97XD) =  -881.482990482     A.U. after   11 cycles
 SCF Done:  E(RwB97XD) =  -881.483039722     A.U. after   11 cycles
 SCF Done:  E(RwB97XD) =  -881.483084019     A.U. after   11 cycles
 SCF Done:  E(RwB97XD) =  -881.483239381     A.U. after   11 cycles
 SCF Done:  E(RwB97XD) =  -881.483239847     A.U. after   11 cycles
 SCF Done:  E(RwB97XD) =  -881.483240100     A.U. after    9 cycles
 SCF Done:  E(RwB97XD) =  -881.483240244     A.U. after    8 cycles
 SCF Done:  E(RwB97XD) =  -881.483240323     A.U. after    8 cycles
 SCF Done:  E(RwB97XD) =  -881.483240381     A.U. after    8 cycles
 SCF Done:  E(RwB97XD) =  -881.483240426     A.U. after    8 cycles
 SCF Done:  E(RwB97XD) =  -881.483240459     A.U. after    8 cycles
 SCF Done:  E(RwB97XD) =  -881.483240482     A.U. after    8 cycles
 Optimization completed.
    -- Stationary point found.
 Normal termination of Gaussian 16 at Fri Dec  9 20:00:23 2022.

 ----------------------------------------------------------------------
 #N Geom=AllCheck Guess=TCheck SCRF=Check GenChk RwB97XD/Aug-CC-pVDZ Fr
 eq
 ----------------------------------------------------------------------

 Structure from the checkpoint file:  "/gscratch/scrubbed/gds001/Gau-21295.chk"
 ----
 blah
 ----
 Charge =  1 Multiplicity = 1

                         Standard orientation:
 ---------------------------------------------------------------------
 Center     Atomic      Atomic             Coordinates (Angstroms)
 Number     Number       Type             X           Y           Z
 ---------------------------------------------------------------------
      1          7           0        1.988101    0.057792    0.723041
      2          6           0        1.778395    0.843903   -0.547632
      3          6           0        2.287835   -0.110853   -1.641583
      4          6           0        3.269037   -1.077671   -0.933791
      5          6           0        3.300578   -0.621465    0.526456
      6          6           0        0.362916    1.344294   -0.674775
      7          6           0       -0.683918    0.459876   -0.927518
      8          7           0       -1.962552    0.830183   -1.003311
      9          6           0       -2.255876    2.125163   -0.847466
     10          6           0       -1.284087    3.092474   -0.615905
     11          6           0        0.044428    2.692019   -0.519605
     12          8           0        0.361818   -2.070915    0.975969
     13          8           0       -0.760684   -2.901749   -1.392990
     14          8           0       -3.150649   -1.583847   -0.804645
     15          1           0        4.085557    0.121527    0.714742
     16          1           0        4.271977   -1.050888   -1.369650
     17          1           0        2.906368   -2.108736   -1.000575
     18          1           0        1.457517   -0.663138   -2.092605
     19          1           0        2.764466    0.465712   -2.440043
     20          1           0        3.389728   -1.433119    1.254316
     21          1           0        2.455791    1.704578   -0.461076
     22          1           0       -0.490638   -0.601952   -1.076051
     23          1           0       -3.309375    2.396734   -0.914339
     24          1           0       -1.567250    4.137192   -0.505827
     25          1           0        0.826831    3.426866   -0.325624
     26          6           0        1.886804    0.851310    1.967174
     27          1           0        1.263111   -0.711617    0.775910
     28          1           0       -0.477049   -1.948659    1.454840
     29          1           0        0.083599   -2.526064    0.157601
     30          1           0       -2.911624   -0.635079   -0.993765
     31          1           0       -4.030157   -1.732059   -1.160515
     32          1           0       -1.689899   -2.614355   -1.319943
     33          1           0       -0.770976   -3.762657   -1.817520
     34          8           0       -2.279862   -1.603622    1.804030
     35          1           0       -2.748661   -1.677032    0.947762
     36          1           0       -2.766358   -2.141831    2.433274
     37          1           0        2.604328    1.678327    1.922215
     38          1           0        2.127024    0.197936    2.811420
     39          1           0        0.859440    1.215396    2.072515
     40          8           0       -1.313225    1.008229    2.299703
     41          1           0       -1.843738    1.514467    2.918413
     42          1           0       -1.764720    0.153563    2.207731
 ---------------------------------------------------------------------

 SCF Done:  E(RwB97XD) =  -881.483240482     A.U. after    1 cycles

 The electronic state is 1-A.
 Alpha  occ. eigenvalues --  -19.39907 -19.39686 -19.38975 -19.37844 -19.36441
 Alpha  occ. eigenvalues --  -14.66977 -14.58210 -10.48600 -10.46983 -10.45830
 Alpha  occ. eigenvalues --  -10.45762 -10.45597 -10.44316 -10.44257 -10.42893
 Alpha  occ. eigenvalues --  -10.42784 -10.42698  -1.24903  -1.24019  -1.23650
 Alpha  occ. eigenvalues --   -1.23045  -1.21628  -1.20627  -1.17786  -1.05413
 Alpha  occ. eigenvalues --   -1.03271  -1.00551  -0.95930  -0.92576  -0.87785
 Alpha  occ. eigenvalues --   -0.85202  -0.84385  -0.82043  -0.77300  -0.75826
 Alpha  occ. eigenvalues --   -0.74600  -0.73925  -0.73335  -0.73043  -0.72485
 Alpha  occ. eigenvalues --   -0.71724  -0.70817  -0.68711  -0.68022  -0.65796
 Alpha  occ. eigenvalues --   -0.64458  -0.63949  -0.63086  -0.62241  -0.61831
 Alpha  occ. eigenvalues --   -0.61446  -0.60859  -0.60253  -0.59929  -0.59755
 Alpha  occ. eigenvalues --   -0.58383  -0.57141  -0.56663  -0.56171  -0.55701
 Alpha  occ. eigenvalues --   -0.54132  -0.53437  -0.52791  -0.52124  -0.51358
 Alpha  occ. eigenvalues --   -0.49656  -0.49157  -0.47920  -0.45953
 Alpha virt. eigenvalues --   -0.09004  -0.07954  -0.06316  -0.05573  -0.04740
 Alpha virt. eigenvalues --   -0.04329  -0.03551  -0.03298  -0.03131  -0.02368
 Alpha virt. eigenvalues --   -0.02240  -0.01493  -0.01106  -0.00849  -0.00509

 Mulliken charges:
               1
     1  N   -1.333892
     2  C    1.029896
     3  C    1.139955
     4  C    0.818298
     5  C    1.336987
     6  C    0.803229
     7  C    1.543973
     8  N   -0.628108
     9  C    0.205701
    10  C    0.685422
    11  C    1.065636
    12  O   -0.550662
    13  O   -0.398283
    14  O   -0.724060
    15  H   -0.457831
    16  H   -0.275426
    17  H   -0.288335
    18  H   -0.320174
    19  H   -0.497609
    20  H   -0.492614
    21  H   -0.921853
    22  H   -1.301023
    23  H   -0.640209
    24  H   -0.634756
    25  H   -0.918375
    26  C    1.341712
    27  H    0.085771
    28  H    0.338613
    29  H    0.256734
    30  H    0.385856
    31  H    0.268900
    32  H    0.203262
    33  H    0.206215
    34  O   -0.580332
    35  H    0.311716
    36  H    0.221894
    37  H   -0.096866
    38  H   -0.113086
    39  H   -0.159356
    40  O   -0.354720
    41  H    0.180137
    42  H    0.257662
 Sum of Mulliken charges =   1.00000

 Dipole moment (field-independent basis, Debye):
    X=              0.2195    Y=             -0.1075    Z=              0.5751  Tot=              0.6249
 Quadrupole moment (field-independent basis, Debye-Ang):
   XX=            -52.9874   YY=            -73.5555   ZZ=            -89.3281
   XY=              7.8845   XZ=             -0.9598   YZ=              4.5642

  Exact polarizability: 188.099  -8.625 175.595   4.164   4.086 140.538
 Approx polarizability: 198.192  -2.515 195.214   4.611   6.600 155.204

                      1                      2                      3
                      A                      A                      A
 Frequencies --     22.9152                43.7616                51.4075
 Red. masses --      2.3968                 3.8370                 4.2396
 Frc consts  --      0.0007                 0.0043                 0.0066
 IR Inten    --      0.0429                 0.5645                 0.2127

                      4                      5                      6
                      A                      A                      A
 Frequencies --     58.4796                69.0520                82.4005
 Red. masses --      5.6938                 4.5479                 5.3584
 Frc consts  --      0.0115                 0.0128                 0.0214
 IR Inten    --      1.3433                 2.4738                 1.3312

                      7                      8                      9
                      A                      A                      A
 Frequencies --     85.8132                99.1041               105.8321
 Red. masses --      5.6813                 5.8603                 5.1754
 Frc consts  --      0.0246                 0.0339                 0.0342
 IR Inten    --      3.5152                 0.1756                 4.5829

                     10                     11                     12
                      A                      A                      A
 Frequencies --    118.7655               133.1111               158.9291
 Red. masses --      5.6490                 3.9327                 2.5554
 Frc consts  --      0.0469                 0.0411                 0.0380
 IR Inten    --      2.8709                10.0329                 4.8798

                     13                     14                     15
                      A                      A                      A
 Frequencies --    175.3488               181.5776               189.2230
 Red. masses --      1.1768                 3.6618                 4.3866
 Frc consts  --      0.0213                 0.0711                 0.0925
 IR Inten    --     71.5477                13.3440                11.0962

                     16                     17                     18
                      A                      A                      A
 Frequencies --    194.2476               211.4166               228.7962
 Red. masses --      4.8887                 4.4716                 2.9325
 Frc consts  --      0.1087                 0.1178                 0.0904
 IR Inten    --      3.4489                36.3944                 4.0868

                     19                     20                     21
                      A                      A                      A
 Frequencies --    231.9904               248.3639               252.5243
 Red. masses --      2.9687                 1.7199                 3.0435
 Frc consts  --      0.0941                 0.0625                 0.1143
 IR Inten    --      8.5812                81.4277                12.2628

                     22                     23                     24
                      A                      A                      A
 Frequencies --    253.4453               268.9367               295.2347
 Red. masses --      1.4928                 2.0032                 3.3718
 Frc consts  --      0.0565                 0.0854                 0.1732
 IR Inten    --      0.9157                 0.3715                 3.8141

                     25                     26                     27
                      A                      A                      A
 Frequencies --    304.3985               332.6468               349.7391
 Red. masses --      1.2215                 4.2540                 1.0530
 Frc consts  --      0.0667                 0.2773                 0.0759
 IR Inten    --     17.4868                 2.0590                 7.2512

                     28                     29                     30
                      A                      A                      A
 Frequencies --    389.4152               415.0073               422.7159
 Red. masses --      2.9441                 2.1742                 1.3192
 Frc consts  --      0.2630                 0.2206                 0.1389
 IR Inten    --      0.3461                 8.1869                52.1688

                     31                     32                     33
                      A                      A                      A
 Frequencies --    439.0286               458.3988               493.6237
 Red. masses --      2.5939                 1.0876                 1.0681
 Frc consts  --      0.2946                 0.1346                 0.1533
 IR Inten    --     12.4451                44.5106               145.0939

                     34                     35                     36
                      A                      A                      A
 Frequencies --    540.7450               546.1859               568.6177
 Red. masses --      3.2578                 1.1293                 3.0225
 Frc consts  --      0.5612                 0.1985                 0.5758
 IR Inten    --      6.5681                30.8432                 3.2338

                     37                     38                     39
                      A                      A                      A
 Frequencies --    615.0355               632.7174               647.4665
 Red. masses --      1.1213                 2.9545                 1.2664
 Frc consts  --      0.2499                 0.6969                 0.3128
 IR Inten    --     91.2530                 2.0730                13.1496

                     40                     41                     42
                      A                      A                      A
 Frequencies --    658.1613               674.4303               679.4572
 Red. masses --      3.2562                 3.7050                 1.1375
 Frc consts  --      0.8310                 0.9929                 0.3094
 IR Inten    --     20.8632                13.9026               134.0904

                     43                     44                     45
                      A                      A                      A
 Frequencies --    713.2468               733.3771               774.4236
 Red. masses --      1.0558                 1.8811                 1.0566
 Frc consts  --      0.3165                 0.5961                 0.3733
 IR Inten    --     27.1162                57.8330               171.0838

                     46                     47                     48
                      A                      A                      A
 Frequencies --    786.4474               819.1696               827.2161
 Red. masses --      1.4778                 1.1352                 1.6813
 Frc consts  --      0.5385                 0.4488                 0.6779
 IR Inten    --      1.1408               119.5353                88.3475

                     49                     50                     51
                      A                      A                      A
 Frequencies --    835.8561               921.1997               936.6229
 Red. masses --      1.8806                 2.8488                 2.2015
 Frc consts  --      0.7741                 1.4243                 1.1379
 IR Inten    --     12.6251                 8.0021                 4.2115

                     52                     53                     54
                      A                      A                      A
 Frequencies --    949.3289               953.7689               981.7848
 Red. masses --      1.7970                 1.2353                 1.3278
 Frc consts  --      0.9542                 0.6621                 0.7540
 IR Inten    --     19.1273                40.5386                 3.1164

                     55                     56                     57
                      A                      A                      A
 Frequencies --    988.2755              1003.9024              1027.1205
 Red. masses --      1.6592                 1.8019                 1.4412
 Frc consts  --      0.9548                 1.0699                 0.8958
 IR Inten    --      3.2611                 5.7358                 0.4123

                     58                     59                     60
                      A                      A                      A
 Frequencies --   1053.8267              1056.7946              1063.1530
 Red. masses --      1.9210                 4.9279                 2.4826
 Frc consts  --      1.2569                 3.2426                 1.6533
 IR Inten    --     14.8519                 8.2189                 6.1187

                     61                     62                     63
                      A                      A                      A
 Frequencies --   1094.1856              1102.8776              1140.1487
 Red. masses --      2.2103                 2.3973                 1.2730
 Frc consts  --      1.5591                 1.7180                 0.9750
 IR Inten    --      5.1677                 3.9071                 5.3299

                     64                     65                     66
                      A                      A                      A
 Frequencies --   1155.6106              1155.9718              1217.9960
 Red. masses --      1.9507                 1.7534                 1.7072
 Frc consts  --      1.5348                 1.3805                 1.4922
 IR Inten    --     19.2196                 5.8137                 3.2769

                     67                     68                     69
                      A                      A                      A
 Frequencies --   1223.3518              1240.5011              1250.7798
 Red. masses --      1.4307                 1.6349                 1.2787
 Frc consts  --      1.2616                 1.4823                 1.1786
 IR Inten    --      4.9985                 6.0700                 7.3517

                     70                     71                     72
                      A                      A                      A
 Frequencies --   1268.2978              1283.3176              1305.8438
 Red. masses --      1.5705                 1.2927                 1.4299
 Frc consts  --      1.4885                 1.2544                 1.4366
 IR Inten    --      1.8240                 5.2248                 1.2891

                     73                     74                     75
                      A                      A                      A
 Frequencies --   1320.3552              1340.9454              1372.3048
 Red. masses --      3.8044                 1.3609                 1.2635
 Frc consts  --      3.9077                 1.4418                 1.4020
 IR Inten    --      0.7630                 0.8801                 2.5729

                     76                     77                     78
                      A                      A                      A
 Frequencies --   1381.6816              1385.2782              1407.9938
 Red. masses --      1.5239                 1.4359                 1.4838
 Frc consts  --      1.7140                 1.6235                 1.7331
 IR Inten    --      2.8328                 3.6549                 1.4954

                     79                     80                     81
                      A                      A                      A
 Frequencies --   1463.6933              1483.5351              1486.3199
 Red. masses --      1.1627                 2.0452                 1.1008
 Frc consts  --      1.4676                 2.6521                 1.4327
 IR Inten    --      2.8718                24.6169                 1.8194

                     82                     83                     84
                      A                      A                      A
 Frequencies --   1490.7598              1497.2548              1503.4742
 Red. masses --      1.0811                 1.0686                 1.0903
 Frc consts  --      1.4156                 1.4114                 1.4521
 IR Inten    --      2.4266                10.7187                22.1769

                     85                     86                     87
                      A                      A                      A
 Frequencies --   1517.0163              1528.0278              1542.4603
 Red. masses --      1.1615                 1.1313                 2.1507
 Frc consts  --      1.5749                 1.5563                 3.0148
 IR Inten    --     31.5211                37.2980                 3.2187

                     88                     89                     90
                      A                      A                      A
 Frequencies --   1611.3267              1650.8696              1660.7898
 Red. masses --      1.1301                 1.0912                 1.1664
 Frc consts  --      1.7288                 1.7522                 1.8955
 IR Inten    --     22.9375                46.9059                45.3643

                     91                     92                     93
                      A                      A                      A
 Frequencies --   1662.1460              1668.5958              1681.9229
 Red. masses --      1.6745                 1.2589                 1.4383
 Frc consts  --      2.7257                 2.0651                 2.3972
 IR Inten    --     98.7049                51.2967                60.4026

                     94                     95                     96
                      A                      A                      A
 Frequencies --   1693.5187              1716.6636              2871.3809
 Red. masses --      4.6582                 1.0761                 1.0921
 Frc consts  --      7.8713                 1.8685                 5.3050
 IR Inten    --     54.8255                41.5803              1019.9875

                     97                     98                     99
                      A                      A                      A
 Frequencies --   3065.9345              3085.4527              3097.5848
 Red. masses --      1.0333                 1.0855                 1.0642
 Frc consts  --      5.7228                 6.0887                 6.0163
 IR Inten    --     13.4324                 2.0086                 6.9141

                    100                    101                    102
                      A                      A                      A
 Frequencies --   3107.9730              3117.0056              3157.5465
 Red. masses --      1.0623                 1.0633                 1.1060
 Frc consts  --      6.0460                 6.0869                 6.4970
 IR Inten    --      9.7642                 7.6177                 0.8057

                    103                    104                    105
                      A                      A                      A
 Frequencies --   3171.2553              3175.6364              3179.2986
 Red. masses --      1.1059                 1.1079                 1.1072
 Frc consts  --      6.5526                 6.5831                 6.5936
 IR Inten    --      7.9540                 8.9203                 6.2043

                    106                    107                    108
                      A                      A                      A
 Frequencies --   3181.0844              3186.0080              3202.1198
 Red. masses --      1.1061                 1.0704                 1.0913
 Frc consts  --      6.5948                 6.4014                 6.5929
 IR Inten    --     18.9240              1365.7477                 3.6302

                    109                    110                    111
                      A                      A                      A
 Frequencies --   3210.6863              3219.7260              3240.4720
 Red. masses --      1.0917                 1.0924                 1.0983
 Frc consts  --      6.6308                 6.6725                 6.7949
 IR Inten    --     60.9215                 2.1287                 2.7950

                    112                    113                    114
                      A                      A                      A
 Frequencies --   3543.0984              3602.7899              3646.8985
 Red. masses --      1.0636                 1.0568                 1.0565
 Frc consts  --      7.8670                 8.0820                 8.2789
 IR Inten    --    270.3905               762.3642               134.7066

                    115                    116                    117
                      A                      A                      A
 Frequencies --   3674.0992              3718.3309              3934.0526
 Red. masses --      1.0713                 1.0602                 1.0668
 Frc consts  --      8.5204                 8.6365                 9.7281
 IR Inten    --    590.7418               391.9023                98.1594

                    118                    119                    120
                      A                      A                      A
 Frequencies --   3936.7031              3945.0555              3952.0082
 Red. masses --      1.0683                 1.0702                 1.0714
 Frc consts  --      9.7548                 9.8132                 9.8588
 IR Inten    --    133.4446               134.4490                84.7071

 - Thermochemistry -
 -------------------
 Temperature   298.150 Kelvin.  Pressure   1.00000 Atm.
 Atom     1 has atomic number  7 and mass  14.00307

 Molecular mass:   253.17635 amu.
 Principal axes and moments of inertia in atomic units:
                           1         2         3
     Eigenvalues --  4034.710475135.029986261.02273
           X            0.99970   0.02424  -0.00398
           Y           -0.02410   0.99923   0.03094
           Z            0.00473  -0.03084   0.99951
 This molecule is an asymmetric top.
 Rotational symmetry number  1.
 Warning -- assumption of classical behavior for rotation
           may cause significant error
 Rotational temperatures (Kelvin)      0.02147     0.01687     0.01383
 Rotational constants (GHZ):           0.44730     0.35146     0.28825
 Zero-point vibrational energy     975447.0 (Joules/Mol)
                                  233.13742 (Kcal/Mol)
 Warning -- explicit consideration of  37 degrees of freedom as
           vibrations may cause significant error
 Vibrational temperatures:     32.97    62.96    73.96    84.14    99.35
          (Kelvin)            118.56   123.47   142.59   152.27   170.88
                              191.52   228.66   252.29   261.25   272.25
                              279.48   304.18   329.19   333.78   357.34
                              363.33   364.65   386.94   424.78   437.96
                              478.60   503.20   560.28   597.10   608.19
                              631.66   659.53   710.21   778.01   785.84
                              818.11   884.90   910.34   931.56   946.95
                              970.35   977.59  1026.20  1055.17  1114.22
                             1131.52  1178.60  1190.18  1202.61  1325.40
                             1347.59  1365.87  1372.26  1412.57  1421.91
                             1444.39  1477.80  1516.22  1520.49  1529.64
                             1574.29  1586.79  1640.42  1662.67  1663.19
                             1752.42  1760.13  1784.80  1799.59  1824.80
                             1846.41  1878.82  1899.70  1929.32  1974.44
                             1987.93  1993.11  2025.79  2105.93  2134.48
                             2138.48  2144.87  2154.22  2163.16  2182.65
                             2198.49  2219.26  2318.34  2375.23  2389.51
                             2391.46  2400.74  2419.91  2436.60  2469.90
                             4131.28  4411.20  4439.28  4456.73  4471.68
                             4484.68  4543.01  4562.73  4569.03  4574.30
                             4576.87  4583.95  4607.14  4619.46  4632.47
                             4662.32  5097.73  5183.61  5247.07  5286.21
                             5349.85  5660.22  5664.04  5676.05  5686.06

 Zero-point correction=                           0.371528 (Hartree/Particle)
 Thermal correction to Energy=                    0.395309
 Thermal correction to Enthalpy=                  0.396253
 Thermal correction to Gibbs Free Energy=         0.318879
 Sum of electronic and zero-point Energies=           -881.111712
 Sum of electronic and thermal Energies=              -881.087931
 Sum of electronic and thermal Enthalpies=            -881.086987
 Sum of electronic and thermal Free Energies=         -881.164361

                     E (Thermal)             CV                S
                      KCal/Mol        Cal/Mol-Kelvin    Cal/Mol-Kelvin
 Total                  248.060             86.324            162.848
 Electronic               0.000              0.000              0.000
 Translational            0.889              2.981             42.487
 Rotational               0.889              2.981             33.228
 Vibrational            246.283             80.362             87.133
 Vibration     1          0.593              1.985              6.364
 Vibration     2          0.595              1.980              5.081
 Vibration     3          0.596              1.977              4.762
 Vibration     4          0.596              1.974              4.508
 Vibration     5          0.598              1.969              4.180
 Vibration     6          0.600              1.961              3.833
 Vibration     7          0.601              1.959              3.753
 Vibration     8          0.604              1.950              3.472
 Vibration     9          0.605              1.945              3.344
 Vibration    10          0.609              1.934              3.120
 Vibration    11          0.613              1.920              2.901
 Vibration    12          0.621              1.893              2.562
 Vibration    13          0.627              1.873              2.377
 Vibration    14          0.630              1.865              2.312
 Vibration    15          0.633              1.855              2.235
 Vibration    16          0.635              1.848              2.187
 Vibration    17          0.643              1.823              2.031
 Vibration    18          0.651              1.797              1.888
 Vibration    19          0.653              1.792              1.863
 Vibration    20          0.662              1.765              1.742
 Vibration    21          0.664              1.759              1.713
 Vibration    22          0.665              1.757              1.706
 Vibration    23          0.673              1.730              1.603
 Vibration    24          0.689              1.683              1.444
 Vibration    25          0.695              1.665              1.393
 Vibration    26          0.715              1.610              1.247
 Vibration    27          0.727              1.576              1.167
 Vibration    28          0.757              1.493              1.002
 Vibration    29          0.778              1.438              0.909
 Vibration    30          0.785              1.421              0.883
 Vibration    31          0.799              1.385              0.830
 Vibration    32          0.816              1.342              0.771
 Vibration    33          0.849              1.264              0.674
 Vibration    34          0.896              1.160              0.564
 Vibration    35          0.901              1.148              0.552
 Vibration    36          0.925              1.099              0.507
 Vibration    37          0.975              1.000              0.425

                           ! Non-Optimized Parameters !
 Normal termination of Gaussian 16 at Fri Dec  9 21:40:33 2022.
