 Gaussian 16, Revision A.03,
 Gaussian 16:  ES64L-G16RevA.03 25-Dec-2016

 -----------------------------
 # wB97XD/aug-cc-pVDZ opt freq
 -----------------------------

 ----
 blah
 ----
 Symbolic Z-matrix:
 Charge =  1 Multiplicity = 1

 SCF Done:  E(RwB97XD) =  -881.471627734     A.U. after   16 cycles
 SCF Done:  E(RwB97XD) =  -881.472265806     A.U. after   13 cycles
 SCF Done:  E(RwB97XD) =  -881.471960803     A.U. after   13 cycles
 SCF Done:  E(RwB97XD) =  -881.472751621     A.U. after   12 cycles
 SCF Done:  E(RwB97XD) =  -881.472926366     A.U. after   12 cycles
 SCF Done:  E(RwB97XD) =  -881.473125322     A.U. after   11 cycles
 SCF Done:  E(RwB97XD) =  -881.473203620     A.U. after   11 cycles
 SCF Done:  E(RwB97XD) =  -881.473261498     A.U. after   11 cycles
 SCF Done:  E(RwB97XD) =  -881.473284341     A.U. after   10 cycles
 SCF Done:  E(RwB97XD) =  -881.473291751     A.U. after   10 cycles
 SCF Done:  E(RwB97XD) =  -881.473310710     A.U. after   10 cycles
 SCF Done:  E(RwB97XD) =  -881.473311014     A.U. after   11 cycles
 SCF Done:  E(RwB97XD) =  -881.473311166     A.U. after    8 cycles
 SCF Done:  E(RwB97XD) =  -881.473311505     A.U. after   10 cycles
 SCF Done:  E(RwB97XD) =  -881.473310610     A.U. after   11 cycles
 SCF Done:  E(RwB97XD) =  -881.473311666     A.U. after   11 cycles
 SCF Done:  E(RwB97XD) =  -881.473311761     A.U. after    9 cycles
 SCF Done:  E(RwB97XD) =  -881.473311843     A.U. after    9 cycles
 SCF Done:  E(RwB97XD) =  -881.473311900     A.U. after    8 cycles
 Optimization completed.
    -- Stationary point found.
 Normal termination of Gaussian 16 at Thu Dec  8 15:22:52 2022.

 ----------------------------------------------------------------------
 #N Geom=AllCheck Guess=TCheck SCRF=Check GenChk RwB97XD/Aug-CC-pVDZ Fr
 eq
 ----------------------------------------------------------------------

 Structure from the checkpoint file:  "/gscratch/scrubbed/gds001/Gau-29012.chk"
 ----
 blah
 ----
 Charge =  1 Multiplicity = 1

                         Standard orientation:
 ---------------------------------------------------------------------
 Center     Atomic      Atomic             Coordinates (Angstroms)
 Number     Number       Type             X           Y           Z
 ---------------------------------------------------------------------
      1          6           0       -2.259755   -2.153041   -0.368290
      2          6           0       -1.162873   -1.398171    0.048728
      3          6           0       -1.384796   -0.054617    0.317758
      4          7           0       -2.596101    0.489783    0.170819
      5          6           0       -3.663190   -0.217853   -0.227650
      6          6           0       -3.520320   -1.565881   -0.500660
      7          6           0        0.221189   -1.977109    0.211667
      8          7           0        1.229890   -1.228590   -0.551172
      9          6           0        2.510502   -1.723198   -0.025482
     10          6           0        2.291628   -1.761354    1.490122
     11          6           0        0.763491   -1.944628    1.655547
     12          8           0       -2.152790    3.037007    0.525416
     13          8           0       -0.517752    2.594513   -1.638680
     14          8           0        1.575401    1.516175   -0.188924
     15          1           0        3.326107   -1.059750   -0.338043
     16          1           0        2.861840   -2.570064    1.957749
     17          1           0        2.614057   -0.819747    1.948500
     18          1           0        0.497555   -2.862649    2.189778
     19          1           0        0.326237   -1.105439    2.209644
     20          1           0        2.719685   -2.734550   -0.420171
     21          1           0        0.195282   -3.024872   -0.145592
     22          1           0       -0.610758    0.623242    0.665916
     23          1           0       -4.602698    0.321214   -0.319564
     24          1           0       -4.381693   -2.146021   -0.822892
     25          1           0       -2.131683   -3.211704   -0.595860
     26          6           0        1.102025   -1.374056   -1.996194
     27          1           0       -2.622773    1.546586    0.349505
     28          1           0        1.429444    0.539857   -0.281069
     29          1           0        2.525565    1.651149   -0.352251
     30          1           0       -1.645723    3.155206   -0.301597
     31          1           0       -1.457342    3.036769    1.208014
     32          1           0       -0.308061    3.142447   -2.398176
     33          1           0        0.334529    2.316268   -1.250474
     34          8           0        0.132805    2.370277    1.997172
     35          1           0        0.828213    2.204997    1.332069
     36          1           0        0.555311    2.793975    2.747425
     37          1           0        1.914458   -0.826890   -2.488223
     38          1           0        0.150610   -0.946088   -2.335395
     39          1           0        1.153034   -2.432496   -2.309278
     40          8           0        4.318104    1.591507   -0.663048
     41          1           0        4.701991    1.893654   -1.491029
     42          1           0        4.956743    1.830157    0.014720
 ---------------------------------------------------------------------

 SCF Done:  E(RwB97XD) =  -881.473311900     A.U. after    1 cycles

 The electronic state is 1-A.
 Alpha  occ. eigenvalues --  -19.41216 -19.38175 -19.38110 -19.37799 -19.37108
 Alpha  occ. eigenvalues --  -14.66332 -14.57984 -10.50247 -10.49697 -10.47211
 Alpha  occ. eigenvalues --  -10.46586 -10.46214 -10.46161 -10.43186 -10.43096
 Alpha  occ. eigenvalues --  -10.41296 -10.40487  -1.25539  -1.24985  -1.23246
 Alpha  occ. eigenvalues --   -1.22149  -1.21937  -1.20811  -1.17354  -1.07618
 Alpha  occ. eigenvalues --   -1.04020  -1.00387  -0.95608  -0.89730  -0.89473
 Alpha  occ. eigenvalues --   -0.88399  -0.81794  -0.79619  -0.79090  -0.75778
 Alpha  occ. eigenvalues --   -0.74777  -0.74191  -0.73503  -0.73001  -0.72542
 Alpha  occ. eigenvalues --   -0.71788  -0.70668  -0.69454  -0.68207  -0.67180
 Alpha  occ. eigenvalues --   -0.65478  -0.64602  -0.63635  -0.63210  -0.62288
 Alpha  occ. eigenvalues --   -0.61359  -0.60107  -0.59122  -0.58704  -0.58373
 Alpha  occ. eigenvalues --   -0.57154  -0.56665  -0.56083  -0.55534  -0.54204
 Alpha  occ. eigenvalues --   -0.53734  -0.52737  -0.52295  -0.51888  -0.51329
 Alpha  occ. eigenvalues --   -0.51013  -0.50649  -0.48718  -0.44392
 Alpha virt. eigenvalues --   -0.13061  -0.10336  -0.06675  -0.05480  -0.04590
 Alpha virt. eigenvalues --   -0.04478  -0.03783  -0.02953  -0.02800  -0.02493
 Alpha virt. eigenvalues --   -0.02105  -0.01636  -0.00966  -0.00444  -0.00221

 Mulliken charges:
               1
     1  C    1.174429
     2  C    0.664973
     3  C    0.524033
     4  N    0.092962
     5  C    0.686655
     6  C    0.483928
     7  C    1.113274
     8  N   -0.918349
     9  C    1.674585
    10  C    0.725240
    11  C    1.218724
    12  O   -0.614175
    13  O   -0.334171
    14  O   -1.150576
    15  H   -0.682081
    16  H   -0.312190
    17  H   -0.324256
    18  H   -0.546358
    19  H   -0.309732
    20  H   -0.553101
    21  H   -0.877031
    22  H   -1.234817
    23  H   -0.669281
    24  H   -0.588091
    25  H   -0.897347
    26  C    1.065904
    27  H    0.140381
    28  H    0.591677
    29  H    0.413972
    30  H    0.270656
    31  H    0.220128
    32  H    0.171201
    33  H    0.323058
    34  O   -0.339652
    35  H    0.300751
    36  H    0.185799
    37  H   -0.266308
    38  H   -0.114318
    39  H   -0.237736
    40  O   -0.479791
    41  H    0.205405
    42  H    0.201626
 Sum of Mulliken charges =   1.00000

 Dipole moment (field-independent basis, Debye):
    X=              1.8292    Y=             -1.0893    Z=             -1.4414  Tot=              2.5710
 Quadrupole moment (field-independent basis, Debye-Ang):
   XX=            -43.8004   YY=            -78.9972   ZZ=            -90.0787
   XY=             21.3695   XZ=              1.4316   YZ=             -1.3454

  Exact polarizability: 198.754  -2.373 172.960   8.494   4.742 142.331
 Approx polarizability: 200.977  -1.061 191.502   9.159   8.011 160.340

                      1                      2                      3
                      A                      A                      A
 Frequencies --     16.5431                34.8373                37.5183
 Red. masses --      4.5393                 4.2123                 4.4582
 Frc consts  --      0.0007                 0.0030                 0.0037
 IR Inten    --      2.6145                 0.4804                 0.1099

                      4                      5                      6
                      A                      A                      A
 Frequencies --     42.0469                54.1782                61.5384
 Red. masses --      4.3941                 3.0385                 5.1833
 Frc consts  --      0.0046                 0.0053                 0.0116
 IR Inten    --      0.6823                 0.1840                 0.7902

                      7                      8                      9
                      A                      A                      A
 Frequencies --     71.3733                81.8456                88.6002
 Red. masses --      3.0997                 5.7890                 4.8411
 Frc consts  --      0.0093                 0.0228                 0.0224
 IR Inten    --      0.7937                 1.3160                 2.8393

                     10                     11                     12
                      A                      A                      A
 Frequencies --     94.7830               120.4668               141.7005
 Red. masses --      3.8676                 4.2381                 1.0466
 Frc consts  --      0.0205                 0.0362                 0.0124
 IR Inten    --      0.8997                 2.0121                12.3063

                     13                     14                     15
                      A                      A                      A
 Frequencies --    149.6071               172.2350               188.6285
 Red. masses --      4.5991                 2.0323                 4.9460
 Frc consts  --      0.0606                 0.0355                 0.1037
 IR Inten    --      5.1216                 1.9466                 0.8847

                     16                     17                     18
                      A                      A                      A
 Frequencies --    201.0870               209.1852               225.1585
 Red. masses --      4.5787                 3.4395                 4.0105
 Frc consts  --      0.1091                 0.0887                 0.1198
 IR Inten    --      4.4058                 9.8494                 6.6272

                     19                     20                     21
                      A                      A                      A
 Frequencies --    237.1075               245.4439               251.5104
 Red. masses --      3.5512                 1.3265                 1.1884
 Frc consts  --      0.1176                 0.0471                 0.0443
 IR Inten    --      4.5209               100.2281                 0.2554

                     22                     23                     24
                      A                      A                      A
 Frequencies --    264.1970               266.0662               268.8487
 Red. masses --      1.2241                 2.3406                 1.4918
 Frc consts  --      0.0503                 0.0976                 0.0635
 IR Inten    --     28.6890                11.2071                17.7162

                     25                     26                     27
                      A                      A                      A
 Frequencies --    278.7104               286.1061               314.5144
 Red. masses --      1.4973                 2.1281                 4.2496
 Frc consts  --      0.0685                 0.1026                 0.2477
 IR Inten    --    277.1336                17.1117                 2.5575

                     28                     29                     30
                      A                      A                      A
 Frequencies --    320.8017               401.6338               413.8033
 Red. masses --      4.5316                 2.8855                 2.9741
 Frc consts  --      0.2748                 0.2742                 0.3000
 IR Inten    --      2.9745                10.5225                20.0581

                     31                     32                     33
                      A                      A                      A
 Frequencies --    419.1712               421.9865               491.7508
 Red. masses --      3.0374                 1.0488                 1.1012
 Frc consts  --      0.3144                 0.1100                 0.1569
 IR Inten    --      5.1810                40.6754                43.3208

                     34                     35                     36
                      A                      A                      A
 Frequencies --    548.2214               557.9273               585.2173
 Red. masses --      3.1905                 1.1351                 2.8101
 Frc consts  --      0.5650                 0.2082                 0.5670
 IR Inten    --      5.3499                34.1357                 5.5605

                     37                     38                     39
                      A                      A                      A
 Frequencies --    630.7124               646.0539               658.8834
 Red. masses --      4.1398                 3.2984                 1.0682
 Frc consts  --      0.9703                 0.8111                 0.2732
 IR Inten    --     19.4565                 2.5330                23.9337

                     40                     41                     42
                      A                      A                      A
 Frequencies --    670.5741               691.7767               710.1608
 Red. masses --      4.5068                 1.1402                 1.2133
 Frc consts  --      1.1940                 0.3215                 0.3605
 IR Inten    --      2.9236                49.5983                 5.4984

                     43                     44                     45
                      A                      A                      A
 Frequencies --    723.3209               780.2303               791.6976
 Red. masses --      1.6068                 1.5223                 1.0726
 Frc consts  --      0.4953                 0.5460                 0.3961
 IR Inten    --     30.2873                17.5829               104.5745

                     46                     47                     48
                      A                      A                      A
 Frequencies --    813.0784               819.0719               840.0841
 Red. masses --      1.0505                 1.1132                 1.5190
 Frc consts  --      0.4092                 0.4400                 0.6316
 IR Inten    --     93.1939               424.6681                35.3766

                     49                     50                     51
                      A                      A                      A
 Frequencies --    847.2977               929.3231               934.9419
 Red. masses --      2.2074                 1.9465                 2.3577
 Frc consts  --      0.9337                 0.9905                 1.2142
 IR Inten    --      7.7763                17.7470                 9.6188

                     52                     53                     54
                      A                      A                      A
 Frequencies --    955.2053               961.0833               981.6441
 Red. masses --      1.8441                 1.3272                 1.5818
 Frc consts  --      0.9914                 0.7223                 0.8981
 IR Inten    --     17.3493                27.7560                 3.4562

                     55                     56                     57
                      A                      A                      A
 Frequencies --    985.4508              1008.5016              1030.9565
 Red. masses --      1.3313                 1.9319                 1.4903
 Frc consts  --      0.7617                 1.1577                 0.9333
 IR Inten    --     11.9566                 7.1632                 0.5700

                     58                     59                     60
                      A                      A                      A
 Frequencies --   1044.0502              1058.3317              1075.2355
 Red. masses --      2.7877                 2.3956                 1.8242
 Frc consts  --      1.7904                 1.5809                 1.2426
 IR Inten    --     10.9065                 2.2333                17.8659

                     61                     62                     63
                      A                      A                      A
 Frequencies --   1088.7476              1117.5931              1144.2306
 Red. masses --      2.2534                 2.2621                 1.2839
 Frc consts  --      1.5738                 1.6647                 0.9904
 IR Inten    --      7.9636                 9.3283                 3.5148

                     64                     65                     66
                      A                      A                      A
 Frequencies --   1149.5436              1200.7171              1213.4069
 Red. masses --      1.4984                 1.9080                 1.3132
 Frc consts  --      1.1666                 1.6207                 1.1392
 IR Inten    --      8.6114                15.6712                 7.3065

                     67                     68                     69
                      A                      A                      A
 Frequencies --   1227.9992              1243.6871              1258.4553
 Red. masses --      1.4409                 1.7458                 1.6351
 Frc consts  --      1.2802                 1.5910                 1.5257
 IR Inten    --      6.4462                12.5805                 0.2167

                     70                     71                     72
                      A                      A                      A
 Frequencies --   1264.5883              1280.2782              1291.9691
 Red. masses --      1.7017                 1.1122                 1.6469
 Frc consts  --      1.6034                 1.0741                 1.6197
 IR Inten    --     19.3299                52.7219                 7.1548

                     73                     74                     75
                      A                      A                      A
 Frequencies --   1301.5721              1329.2336              1330.7465
 Red. masses --      1.3459                 1.8282                 1.3605
 Frc consts  --      1.3434                 1.9031                 1.4195
 IR Inten    --      8.2620                29.1876                 0.1860

                     76                     77                     78
                      A                      A                      A
 Frequencies --   1359.6180              1372.9275              1384.5602
 Red. masses --      1.3430                 2.0154                 1.5677
 Frc consts  --      1.4627                 2.2382                 1.7707
 IR Inten    --      3.0309                11.3939                 6.2664

                     79                     80                     81
                      A                      A                      A
 Frequencies --   1402.7202              1439.6690              1452.6626
 Red. masses --      1.8650                 1.5837                 1.2199
 Frc consts  --      2.1621                 1.9340                 1.5167
 IR Inten    --      2.6382                25.3965                 6.8998

                     82                     83                     84
                      A                      A                      A
 Frequencies --   1483.4463              1485.6752              1490.9450
 Red. masses --      1.0476                 1.0758                 1.0666
 Frc consts  --      1.3583                 1.3990                 1.3969
 IR Inten    --     12.4975                 7.0135                 6.6569

                     85                     86                     87
                      A                      A                      A
 Frequencies --   1505.4469              1515.6529              1524.6698
 Red. masses --      1.0931                 1.7371                 1.2574
 Frc consts  --      1.4596                 2.3511                 1.7222
 IR Inten    --     11.0774                54.7587                10.3401

                     88                     89                     90
                      A                      A                      A
 Frequencies --   1618.0141              1638.0172              1650.4446
 Red. masses --      2.0895                 1.0844                 1.0722
 Frc consts  --      3.2230                 1.7143                 1.7207
 IR Inten    --     99.4977                91.0457                35.3421

                     91                     92                     93
                      A                      A                      A
 Frequencies --   1663.1028              1703.5075              1708.6614
 Red. masses --      1.0771                 1.5762                 2.1738
 Frc consts  --      1.7552                 2.6950                 3.7393
 IR Inten    --    124.0965                52.3963                 1.0178

                     94                     95                     96
                      A                      A                      A
 Frequencies --   1712.3492              1721.8003              2666.4845
 Red. masses --      2.2212                 1.1924                 1.1114
 Frc consts  --      3.8373                 2.0827                 4.6559
 IR Inten    --     34.1575                60.2523              1909.9625

                     97                     98                     99
                      A                      A                      A
 Frequencies --   2975.8128              2994.3081              2997.2549
 Red. masses --      1.0838                 1.0700                 1.0504
 Frc consts  --      5.6545                 5.6525                 5.5596
 IR Inten    --     46.8657                47.8662                84.1481

                    100                    101                    102
                      A                      A                      A
 Frequencies --   3089.3297              3101.8313              3108.1877
 Red. masses --      1.0632                 1.0661                 1.0865
 Frc consts  --      5.9784                 6.0435                 6.1843
 IR Inten    --     14.7333                17.1235                16.6158

                    103                    104                    105
                      A                      A                      A
 Frequencies --   3120.1445              3143.6660              3149.7434
 Red. masses --      1.0925                 1.1048                 1.1040
 Frc consts  --      6.2664                 6.4327                 6.4532
 IR Inten    --     10.4892                 1.4377                13.7916

                    106                    107                    108
                      A                      A                      A
 Frequencies --   3163.2297              3212.1756              3244.5102
 Red. masses --      1.1054                 1.0925                 1.0926
 Frc consts  --      6.5167                 6.6414                 6.7765
 IR Inten    --     25.0968                 0.3072                 0.6920

                    109                    110                    111
                      A                      A                      A
 Frequencies --   3258.5286              3262.2654              3278.0478
 Red. masses --      1.1006                 1.0765                 1.0860
 Frc consts  --      6.8850                 6.7502                 6.8757
 IR Inten    --      4.4768               713.2333               527.2773

                    112                    113                    114
                      A                      A                      A
 Frequencies --   3570.2136              3611.1302              3629.9998
 Red. masses --      1.0633                 1.0583                 1.0586
 Frc consts  --      7.9856                 8.1310                 8.2182
 IR Inten    --    187.5668              1104.5730               198.9553

                    115                    116                    117
                      A                      A                      A
 Frequencies --   3681.1132              3689.7125              3871.1629
 Red. masses --      1.0632                 1.0725                 1.0455
 Frc consts  --      8.4882                 8.6023                 9.2314
 IR Inten    --    341.5571               501.5404                28.7381

                    118                    119                    120
                      A                      A                      A
 Frequencies --   3946.5955              3949.4126              3973.7878
 Red. masses --      1.0692                 1.0702                 1.0825
 Frc consts  --      9.8123                 9.8347                10.0710
 IR Inten    --    134.9155                92.9182               107.3347

 - Thermochemistry -
 -------------------
 Temperature   298.150 Kelvin.  Pressure   1.00000 Atm.
 Atom     1 has atomic number  6 and mass  12.00000

 Molecular mass:   253.17635 amu.
 Principal axes and moments of inertia in atomic units:
                           1         2         3
     Eigenvalues --  4130.377955539.221327561.40919
           X            1.00000  -0.00116   0.00086
           Y            0.00115   1.00000   0.00068
           Z           -0.00086  -0.00068   1.00000
 This molecule is an asymmetric top.
 Rotational symmetry number  1.
 Warning -- assumption of classical behavior for rotation
           may cause significant error
 Rotational temperatures (Kelvin)      0.02097     0.01564     0.01145
 Rotational constants (GHZ):           0.43694     0.32581     0.23868
 Zero-point vibrational energy     969676.9 (Joules/Mol)
                                  231.75835 (Kcal/Mol)
 Warning -- explicit consideration of  36 degrees of freedom as
           vibrations may cause significant error
 Vibrational temperatures:     23.80    50.12    53.98    60.50    77.95
          (Kelvin)             88.54   102.69   117.76   127.48   136.37
                              173.32   203.88   215.25   247.81   271.39
                              289.32   300.97   323.95   341.14   353.14
                              361.87   380.12   382.81   386.81   401.00
                              411.64   452.52   461.56   577.86   595.37
                              603.09   607.14   707.52   788.77   802.73
                              842.00   907.45   929.53   947.99   964.81
                              995.31  1021.76  1040.70  1122.58  1139.08
                             1169.84  1178.46  1208.69  1219.07  1337.09
                             1345.17  1374.33  1382.78  1412.37  1417.84
                             1451.01  1483.32  1502.16  1522.70  1547.02
                             1566.46  1607.97  1646.29  1653.94  1727.56
                             1745.82  1766.82  1789.39  1810.64  1819.46
                             1842.03  1858.86  1872.67  1912.47  1914.65
                             1956.19  1975.34  1992.07  2018.20  2071.36
                             2090.06  2134.35  2137.56  2145.14  2166.00
                             2180.69  2193.66  2327.96  2356.74  2374.62
                             2392.83  2450.97  2458.38  2463.69  2477.29
                             3836.48  4281.53  4308.14  4312.38  4444.86
                             4462.84  4471.99  4489.19  4523.03  4531.78
                             4551.18  4621.60  4668.13  4688.30  4693.67
                             4716.38  5136.74  5195.61  5222.76  5296.30
                             5308.67  5569.74  5678.27  5682.32  5717.39

 Zero-point correction=                           0.369330 (Hartree/Particle)
 Thermal correction to Energy=                    0.393727
 Thermal correction to Enthalpy=                  0.394671
 Thermal correction to Gibbs Free Energy=         0.313995
 Sum of electronic and zero-point Energies=           -881.103981
 Sum of electronic and thermal Energies=              -881.079585
 Sum of electronic and thermal Enthalpies=            -881.078641
 Sum of electronic and thermal Free Energies=         -881.159317

                     E (Thermal)             CV                S
                      KCal/Mol        Cal/Mol-Kelvin    Cal/Mol-Kelvin
 Total                  247.067             86.588            169.797
 Electronic               0.000              0.000              0.000
 Translational            0.889              2.981             42.487
 Rotational               0.889              2.981             33.514
 Vibrational            245.290             80.627             93.796
 Vibration     1          0.593              1.986              7.011
 Vibration     2          0.594              1.983              5.533
 Vibration     3          0.594              1.982              5.386
 Vibration     4          0.595              1.980              5.160
 Vibration     5          0.596              1.976              4.659
 Vibration     6          0.597              1.973              4.407
 Vibration     7          0.598              1.968              4.115
 Vibration     8          0.600              1.962              3.846
 Vibration     9          0.601              1.957              3.691
 Vibration    10          0.603              1.953              3.559
 Vibration    11          0.609              1.932              3.093
 Vibration    12          0.615              1.912              2.781
 Vibration    13          0.618              1.903              2.677
 Vibration    14          0.626              1.877              2.411
 Vibration    15          0.633              1.855              2.241
 Vibration    16          0.638              1.838              2.123
 Vibration    17          0.642              1.827              2.051
 Vibration    18          0.650              1.803              1.917
 Vibration    19          0.656              1.784              1.824
 Vibration    20          0.660              1.770              1.763
 Vibration    21          0.663              1.760              1.720
 Vibration    22          0.671              1.739              1.634
 Vibration    23          0.672              1.735              1.622
 Vibration    24          0.673              1.730              1.604
 Vibration    25          0.679              1.713              1.542
 Vibration    26          0.684              1.699              1.497
 Vibration    27          0.702              1.646              1.338
 Vibration    28          0.706              1.634              1.306
 Vibration    29          0.767              1.467              0.957
 Vibration    30          0.777              1.440              0.913
 Vibration    31          0.782              1.429              0.895
 Vibration    32          0.784              1.422              0.885
 Vibration    33          0.847              1.268              0.679
 Vibration    34          0.903              1.144              0.548
 Vibration    35          0.913              1.122              0.528
 Vibration    36          0.942              1.063              0.476

                           ! Non-Optimized Parameters !
 Normal termination of Gaussian 16 at Thu Dec  8 16:57:28 2022.
