 Gaussian 16, Revision A.03,
 Gaussian 16:  ES64L-G16RevA.03 25-Dec-2016

 -----------------------------
 # wB97XD/aug-cc-pVDZ opt freq
 -----------------------------

 ----
 blah
 ----
 Symbolic Z-matrix:
 Charge =  1 Multiplicity = 1

 SCF Done:  E(RwB97XD) =  -881.470470470     A.U. after   15 cycles
 SCF Done:  E(RwB97XD) =  -881.471207825     A.U. after   12 cycles
 SCF Done:  E(RwB97XD) =  -881.471452029     A.U. after   12 cycles
 SCF Done:  E(RwB97XD) =  -881.471835650     A.U. after   11 cycles
 SCF Done:  E(RwB97XD) =  -881.472053508     A.U. after   12 cycles
 SCF Done:  E(RwB97XD) =  -881.472211041     A.U. after   12 cycles
 SCF Done:  E(RwB97XD) =  -881.472352196     A.U. after   11 cycles
 SCF Done:  E(RwB97XD) =  -881.472446550     A.U. after   11 cycles
 SCF Done:  E(RwB97XD) =  -881.472487146     A.U. after   10 cycles
 SCF Done:  E(RwB97XD) =  -881.472506613     A.U. after   10 cycles
 SCF Done:  E(RwB97XD) =  -881.472529673     A.U. after   10 cycles
 SCF Done:  E(RwB97XD) =  -881.472531180     A.U. after    9 cycles
 SCF Done:  E(RwB97XD) =  -881.472531766     A.U. after    8 cycles
 SCF Done:  E(RwB97XD) =  -881.472532046     A.U. after    8 cycles
 SCF Done:  E(RwB97XD) =  -881.472532173     A.U. after    8 cycles
 SCF Done:  E(RwB97XD) =  -881.472532222     A.U. after    8 cycles
 SCF Done:  E(RwB97XD) =  -881.472532236     A.U. after    7 cycles
 SCF Done:  E(RwB97XD) =  -881.472532242     A.U. after    7 cycles
 SCF Done:  E(RwB97XD) =  -881.472532244     A.U. after    7 cycles
 Optimization completed.
    -- Stationary point found.
 Normal termination of Gaussian 16 at Thu Dec  8 15:33:34 2022.

 ----------------------------------------------------------------------
 #N Geom=AllCheck Guess=TCheck SCRF=Check GenChk RwB97XD/Aug-CC-pVDZ Fr
 eq
 ----------------------------------------------------------------------

 Structure from the checkpoint file:  "/gscratch/scrubbed/gds001/Gau-662.chk"
 ----
 blah
 ----
 Charge =  1 Multiplicity = 1

                         Standard orientation:
 ---------------------------------------------------------------------
 Center     Atomic      Atomic             Coordinates (Angstroms)
 Number     Number       Type             X           Y           Z
 ---------------------------------------------------------------------
      1          6           0        1.071785    2.678116   -0.285754
      2          6           0        1.077487    1.301633   -0.507063
      3          6           0       -0.154407    0.661702   -0.571682
      4          7           0       -1.290431    1.346574   -0.402870
      5          6           0       -1.317967    2.669725   -0.174288
      6          6           0       -0.130832    3.372133   -0.124335
      7          6           0        2.347671    0.488852   -0.618069
      8          7           0        2.474600   -0.405902    0.544533
      9          6           0        3.302949   -1.530903    0.096194
     10          6           0        2.724704   -1.842363   -1.277656
     11          6           0        2.424170   -0.445860   -1.855306
     12          8           0       -3.159267   -0.537182   -0.062623
     13          8           0       -1.820822   -0.056487    2.346671
     14          8           0        0.173345   -1.838392    1.444269
     15          1           0        3.224198   -2.360414    0.808782
     16          1           0        3.412698   -2.417241   -1.905368
     17          1           0        1.799019   -2.420960   -1.166618
     18          1           0        3.229625   -0.107542   -2.515979
     19          1           0        1.501098   -0.432151   -2.445548
     20          1           0        4.366858   -1.235598    0.022077
     21          1           0        3.197696    1.195411   -0.640704
     22          1           0       -0.268357   -0.406244   -0.749155
     23          1           0       -2.295671    3.122464   -0.033313
     24          1           0       -0.144866    4.444609    0.053856
     25          1           0        2.017832    3.217474   -0.229814
     26          6           0        2.970551    0.260151    1.740421
     27          1           0       -2.167798    0.772955   -0.380502
     28          1           0        0.946109   -1.301746    1.164916
     29          1           0       -0.409561   -1.237262    1.939585
     30          1           0       -4.095151   -0.633535   -0.322311
     31          1           0       -2.676843   -1.346935   -0.343425
     32          1           0       -2.207094   -0.132733    3.222533
     33          1           0       -2.520440   -0.297853    1.715548
     34          8           0       -1.327227   -2.409971   -0.659319
     35          1           0       -0.750462   -2.381706    0.145292
     36          1           0       -1.421844   -3.331107   -0.910322
     37          1           0        3.036050   -0.464339    2.560318
     38          1           0        2.274699    1.052628    2.045858
     39          1           0        3.969675    0.705906    1.581884
     40          8           0       -5.809362   -0.711406   -0.739499
     41          1           0       -6.168890   -0.784631   -1.627499
     42          1           0       -6.487763   -1.055765   -0.152500
 ---------------------------------------------------------------------

 SCF Done:  E(RwB97XD) =  -881.472532244     A.U. after    2 cycles

 The electronic state is 1-A.
 Alpha  occ. eigenvalues --  -19.40672 -19.38712 -19.38310 -19.37750 -19.35582
 Alpha  occ. eigenvalues --  -14.67283 -14.56869 -10.50618 -10.50042 -10.47303
 Alpha  occ. eigenvalues --  -10.46538 -10.46443 -10.45679 -10.42277 -10.42257
 Alpha  occ. eigenvalues --  -10.40841 -10.39726  -1.25652  -1.25062  -1.23382
 Alpha  occ. eigenvalues --   -1.22324  -1.21775  -1.19524  -1.16386  -1.07774
 Alpha  occ. eigenvalues --   -1.04260  -0.99808  -0.95352  -0.90182  -0.89170
 Alpha  occ. eigenvalues --   -0.87984  -0.82101  -0.79109  -0.78533  -0.75530
 Alpha  occ. eigenvalues --   -0.75383  -0.74315  -0.73974  -0.73317  -0.72520
 Alpha  occ. eigenvalues --   -0.71824  -0.69783  -0.68662  -0.68424  -0.67569
 Alpha  occ. eigenvalues --   -0.64773  -0.64155  -0.64013  -0.63007  -0.61323
 Alpha  occ. eigenvalues --   -0.60649  -0.60116  -0.59200  -0.58488  -0.57937
 Alpha  occ. eigenvalues --   -0.56151  -0.55890  -0.55368  -0.55010  -0.53596
 Alpha  occ. eigenvalues --   -0.53085  -0.52922  -0.52697  -0.51979  -0.51493
 Alpha  occ. eigenvalues --   -0.51107  -0.49582  -0.48546  -0.42972
 Alpha virt. eigenvalues --   -0.13355  -0.10502  -0.06506  -0.05281  -0.04329
 Alpha virt. eigenvalues --   -0.04223  -0.03866  -0.03067  -0.02794  -0.02575
 Alpha virt. eigenvalues --   -0.01764  -0.01288  -0.00978  -0.00608  -0.00324

 Mulliken charges:
               1
     1  C    1.217098
     2  C    0.921151
     3  C    0.753018
     4  N    0.174784
     5  C    0.863626
     6  C    0.326273
     7  C    0.924011
     8  N   -1.277069
     9  C    1.424986
    10  C    0.798900
    11  C    1.218636
    12  O   -0.744501
    13  O   -0.347097
    14  O   -0.580417
    15  H   -0.483554
    16  H   -0.362999
    17  H   -0.261083
    18  H   -0.459876
    19  H   -0.457664
    20  H   -0.476371
    21  H   -0.777091
    22  H   -1.356126
    23  H   -0.706581
    24  H   -0.586534
    25  H   -0.907644
    26  C    1.002057
    27  H    0.094942
    28  H    0.262365
    29  H    0.336783
    30  H    0.290006
    31  H    0.358888
    32  H    0.174469
    33  H    0.228018
    34  O   -0.422367
    35  H    0.249635
    36  H    0.166001
    37  H   -0.203045
    38  H   -0.126409
    39  H   -0.217972
    40  O   -0.310209
    41  H    0.144160
    42  H    0.134801
 Sum of Mulliken charges =   1.00000

 Dipole moment (field-independent basis, Debye):
    X=             -5.0855    Y=              3.0149    Z=             -1.4182  Tot=              6.0797
 Quadrupole moment (field-independent basis, Debye-Ang):
   XX=            -29.9787   YY=            -73.9541   ZZ=            -93.0202
   XY=              8.2966   XZ=              2.4012   YZ=              4.1042

  Exact polarizability: 192.477  -9.465 181.519  -0.821   5.922 140.232
 Approx polarizability: 198.970  -2.379 197.231  -1.214   7.246 157.025

                      1                      2                      3
                      A                      A                      A
 Frequencies --     12.6112                27.2192                36.8832
 Red. masses --      4.0812                 4.5833                 4.8041
 Frc consts  --      0.0004                 0.0020                 0.0039
 IR Inten    --      1.0896                 0.8510                 1.0869

                      4                      5                      6
                      A                      A                      A
 Frequencies --     43.0054                46.8432                66.9303
 Red. masses --      3.3272                 4.0012                 5.6761
 Frc consts  --      0.0036                 0.0052                 0.0150
 IR Inten    --      0.7988                 0.4830                 0.7987

                      7                      8                      9
                      A                      A                      A
 Frequencies --     76.9553                80.8385                89.1293
 Red. masses --      3.9983                 5.2715                 1.0640
 Frc consts  --      0.0140                 0.0203                 0.0050
 IR Inten    --      0.6754                 1.9413                 9.7513

                     10                     11                     12
                      A                      A                      A
 Frequencies --     94.0033               100.6119               118.7629
 Red. masses --      5.7489                 4.1950                 4.1087
 Frc consts  --      0.0299                 0.0250                 0.0341
 IR Inten    --      3.3935                 1.1469                 1.8498

                     13                     14                     15
                      A                      A                      A
 Frequencies --    156.7086               164.2204               180.8303
 Red. masses --      4.9299                 5.1592                 5.2389
 Frc consts  --      0.0713                 0.0820                 0.1009
 IR Inten    --     17.2269                 3.3074                22.8031

                     16                     17                     18
                      A                      A                      A
 Frequencies --    190.2746               203.0535               204.8093
 Red. masses --      1.1657                 2.9066                 5.1727
 Frc consts  --      0.0249                 0.0706                 0.1278
 IR Inten    --    199.4933                 8.2181                 5.3801

                     19                     20                     21
                      A                      A                      A
 Frequencies --    222.2806               259.3175               261.7235
 Red. masses --      1.7999                 1.2298                 3.5415
 Frc consts  --      0.0524                 0.0487                 0.1429
 IR Inten    --      2.0625                 0.8755                26.4586

                     22                     23                     24
                      A                      A                      A
 Frequencies --    270.0410               273.9432               283.8273
 Red. masses --      2.6022                 1.2665                 1.1852
 Frc consts  --      0.1118                 0.0560                 0.0563
 IR Inten    --     12.0833                49.1793               115.7026

                     25                     26                     27
                      A                      A                      A
 Frequencies --    296.1963               308.6399               329.0978
 Red. masses --      3.6681                 2.5307                 1.8222
 Frc consts  --      0.1896                 0.1420                 0.1163
 IR Inten    --     18.4890                30.4125                22.4791

                     28                     29                     30
                      A                      A                      A
 Frequencies --    333.4789               388.2995               397.8504
 Red. masses --      3.7467                 2.7426                 2.7046
 Frc consts  --      0.2455                 0.2436                 0.2522
 IR Inten    --     11.1120                17.3482                 2.8466

                     31                     32                     33
                      A                      A                      A
 Frequencies --    410.3618               423.8225               520.2659
 Red. masses --      1.5828                 1.6343                 1.0905
 Frc consts  --      0.1570                 0.1730                 0.1739
 IR Inten    --     14.7878                13.7567               114.4725

                     34                     35                     36
                      A                      A                      A
 Frequencies --    557.2245               580.6114               598.0726
 Red. masses --      3.5664                 1.9565                 1.2623
 Frc consts  --      0.6524                 0.3886                 0.2660
 IR Inten    --      3.5279                 8.3377                30.8547

                     37                     38                     39
                      A                      A                      A
 Frequencies --    632.0527               639.2538               651.4328
 Red. masses --      4.5920                 3.7767                 1.5426
 Frc consts  --      1.0808                 0.9093                 0.3857
 IR Inten    --     10.9619                 4.7437                64.2008

                     40                     41                     42
                      A                      A                      A
 Frequencies --    657.1628               713.3892               728.2657
 Red. masses --      1.6715                 1.9178                 1.0509
 Frc consts  --      0.4253                 0.5750                 0.3284
 IR Inten    --     26.7326                50.5727               159.0899

                     43                     44                     45
                      A                      A                      A
 Frequencies --    758.5777               783.0757               818.7385
 Red. masses --      1.0631                 2.1879                 1.0618
 Frc consts  --      0.3604                 0.7905                 0.4193
 IR Inten    --     99.5149                 5.1870                68.8996

                     46                     47                     48
                      A                      A                      A
 Frequencies --    824.2318               834.9392               858.4211
 Red. masses --      1.1729                 1.3920                 1.1225
 Frc consts  --      0.4695                 0.5717                 0.4873
 IR Inten    --     37.0168               124.0665                 5.0145

                     49                     50                     51
                      A                      A                      A
 Frequencies --    868.6811               911.0080               934.5766
 Red. masses --      1.9357                 1.8145                 2.9597
 Frc consts  --      0.8606                 0.8873                 1.5231
 IR Inten    --      4.8329                30.1049                 8.8386

                     52                     53                     54
                      A                      A                      A
 Frequencies --    957.3312               967.4740               978.5954
 Red. masses --      1.9948                 1.3207                 1.7207
 Frc consts  --      1.0772                 0.7283                 0.9708
 IR Inten    --     17.1353                15.5974                 0.2749

                     55                     56                     57
                      A                      A                      A
 Frequencies --    996.4528              1021.5626              1030.4404
 Red. masses --      1.7974                 1.1248                 1.4259
 Frc consts  --      1.0515                 0.6916                 0.8920
 IR Inten    --      6.0642                64.4548                 1.3333

                     58                     59                     60
                      A                      A                      A
 Frequencies --   1048.9816              1062.4061              1074.4210
 Red. masses --      2.8830                 1.8826                 2.2011
 Frc consts  --      1.8691                 1.2520                 1.4971
 IR Inten    --     13.8224                18.6483                 2.9228

                     61                     62                     63
                      A                      A                      A
 Frequencies --   1093.0638              1106.1068              1126.5541
 Red. masses --      2.2016                 1.8892                 1.1641
 Frc consts  --      1.5498                 1.3619                 0.8704
 IR Inten    --      7.0696                 3.8496                48.1339

                     64                     65                     66
                      A                      A                      A
 Frequencies --   1140.4764              1149.7744              1182.4434
 Red. masses --      1.2624                 1.4821                 1.5384
 Frc consts  --      0.9675                 1.1544                 1.2673
 IR Inten    --      3.8946                16.5933                 9.2888

                     67                     68                     69
                      A                      A                      A
 Frequencies --   1212.8586              1222.5871              1238.5835
 Red. masses --      1.5005                 1.3866                 1.8949
 Frc consts  --      1.3005                 1.2212                 1.7127
 IR Inten    --      9.8341                 2.6769                19.3858

                     70                     71                     72
                      A                      A                      A
 Frequencies --   1258.0943              1269.5584              1273.8281
 Red. masses --      1.7113                 2.1694                 1.4376
 Frc consts  --      1.5959                 2.0601                 1.3744
 IR Inten    --      4.8612                16.8811                10.0555

                     73                     74                     75
                      A                      A                      A
 Frequencies --   1311.9643              1331.8510              1341.6462
 Red. masses --      1.3035                 2.0753                 1.3617
 Frc consts  --      1.3219                 2.1689                 1.4441
 IR Inten    --      0.8145                29.0912                 1.2035

                     76                     77                     78
                      A                      A                      A
 Frequencies --   1352.0923              1380.6848              1382.6453
 Red. masses --      1.4772                 1.7458                 1.8520
 Frc consts  --      1.5911                 1.9608                 2.0860
 IR Inten    --      1.3200                 5.6518                 9.8903

                     79                     80                     81
                      A                      A                      A
 Frequencies --   1392.7287              1441.2922              1451.7023
 Red. masses --      1.6538                 1.6402                 1.2369
 Frc consts  --      1.8901                 2.0075                 1.5358
 IR Inten    --      2.9587                26.7936                 5.0742

                     82                     83                     84
                      A                      A                      A
 Frequencies --   1483.5298              1487.7704              1492.2118
 Red. masses --      1.0471                 1.0701                 1.0773
 Frc consts  --      1.3578                 1.3956                 1.4134
 IR Inten    --     14.0134                 9.4646                 8.0996

                     85                     86                     87
                      A                      A                      A
 Frequencies --   1504.4729              1515.7905              1524.0033
 Red. masses --      1.1111                 1.4164                 1.4781
 Frc consts  --      1.4817                 1.9174                 2.0226
 IR Inten    --      7.3541                26.3915                21.9819

                     88                     89                     90
                      A                      A                      A
 Frequencies --   1631.9079              1632.9566              1646.4428
 Red. masses --      1.3680                 1.5395                 1.0772
 Frc consts  --      2.1465                 2.4187                 1.7205
 IR Inten    --    118.4556                46.6214                84.2875

                     91                     92                     93
                      A                      A                      A
 Frequencies --   1648.0560              1669.1728              1684.0603
 Red. masses --      1.1017                 1.0737                 1.0688
 Frc consts  --      1.7630                 1.7625                 1.7859
 IR Inten    --     60.3660                12.0191                 5.6083

                     94                     95                     96
                      A                      A                      A
 Frequencies --   1710.5982              1720.4942              2984.8245
 Red. masses --      4.6232                 2.4996                 1.0725
 Frc consts  --      7.9705                 4.3595                 5.6298
 IR Inten    --     16.6402                37.7134                40.9184

                     97                     98                     99
                      A                      A                      A
 Frequencies --   2989.8718              2991.7893              3015.4994
 Red. masses --      1.0794                 1.0539                 1.0968
 Frc consts  --      5.6850                 5.5577                 5.8761
 IR Inten    --     24.7956                95.3700              1503.0704

                    100                    101                    102
                      A                      A                      A
 Frequencies --   3085.9027              3099.4424              3099.9827
 Red. masses --      1.0655                 1.0703                 1.0796
 Frc consts  --      5.9784                 6.0581                 6.1129
 IR Inten    --     15.4118                24.0543                15.9187

                    103                    104                    105
                      A                      A                      A
 Frequencies --   3126.9104              3144.9881              3148.5126
 Red. masses --      1.0935                 1.1043                 1.1025
 Frc consts  --      6.2994                 6.4357                 6.4391
 IR Inten    --     13.2316                 3.9040                11.3521

                    106                    107                    108
                      A                      A                      A
 Frequencies --   3161.8510              3210.5088              3240.0449
 Red. masses --      1.1041                 1.0927                 1.0957
 Frc consts  --      6.5033                 6.6361                 6.7769
 IR Inten    --     26.3786                 0.4352                27.2701

                    109                    110                    111
                      A                      A                      A
 Frequencies --   3247.4365              3264.6248              3304.1953
 Red. masses --      1.0930                 1.1003                 1.0667
 Frc consts  --      6.7912                 6.9091                 6.8614
 IR Inten    --      1.0282                 2.1345               997.0984

                    112                    113                    114
                      A                      A                      A
 Frequencies --   3474.0578              3487.6639              3608.6259
 Red. masses --      1.0611                 1.0629                 1.0751
 Frc consts  --      7.5453                 7.6172                 8.2485
 IR Inten    --    507.6900               594.1057              1398.8934

                    115                    116                    117
                      A                      A                      A
 Frequencies --   3669.1935              3705.3920              3876.2684
 Red. masses --      1.0637                 1.0634                 1.0453
 Frc consts  --      8.4372                 8.6025                 9.2534
 IR Inten    --    289.1189               324.6122                28.2213

                    118                    119                    120
                      A                      A                      A
 Frequencies --   3941.5349              3946.1863              3980.8450
 Red. masses --      1.0714                 1.0672                 1.0829
 Frc consts  --      9.8066                 9.7914                10.1112
 IR Inten    --    118.4085                99.3052               114.8941

 - Thermochemistry -
 -------------------
 Temperature   298.150 Kelvin.  Pressure   1.00000 Atm.
 Atom     1 has atomic number  6 and mass  12.00000

 Molecular mass:   253.17635 amu.
 Principal axes and moments of inertia in atomic units:
                           1         2         3
     Eigenvalues --  3543.932696938.756598276.23347
           X            0.99999   0.00293   0.00224
           Y           -0.00297   0.99980   0.01968
           Z           -0.00218  -0.01969   0.99980
 This molecule is an asymmetric top.
 Rotational symmetry number  1.
 Warning -- assumption of classical behavior for rotation
           may cause significant error
 Rotational temperatures (Kelvin)      0.02444     0.01248     0.01047
 Rotational constants (GHZ):           0.50925     0.26010     0.21806
 Zero-point vibrational energy     970042.1 (Joules/Mol)
                                  231.84562 (Kcal/Mol)
 Warning -- explicit consideration of  36 degrees of freedom as
           vibrations may cause significant error
 Vibrational temperatures:     18.14    39.16    53.07    61.88    67.40
          (Kelvin)             96.30   110.72   116.31   128.24   135.25
                              144.76   170.87   225.47   236.28   260.17
                              273.76   292.15   294.67   319.81   373.10
                              376.56   388.53   394.14   408.36   426.16
                              444.06   473.50   479.80   558.68   572.42
                              590.42   609.79   748.55   801.72   835.37
                              860.49   909.38   919.74   937.27   945.51
                             1026.41  1047.81  1091.42  1126.67  1177.98
                             1185.89  1201.29  1235.08  1249.84  1310.74
                             1344.65  1377.39  1391.98  1407.98  1433.67
                             1469.80  1482.57  1509.25  1528.57  1545.85
                             1572.68  1591.44  1620.86  1640.89  1654.27
                             1701.27  1745.03  1759.03  1782.05  1810.12
                             1826.61  1832.75  1887.62  1916.24  1930.33
                             1945.36  1986.50  1989.32  2003.83  2073.70
                             2088.68  2134.47  2140.57  2146.96  2164.60
                             2180.88  2192.70  2347.95  2349.46  2368.86
                             2371.19  2401.57  2422.99  2461.17  2475.41
                             4294.50  4301.76  4304.52  4338.63  4439.93
                             4459.41  4460.18  4498.93  4524.94  4530.01
                             4549.20  4619.21  4661.70  4672.34  4697.07
                             4754.00  4998.39  5017.97  5192.01  5279.15
                             5331.23  5577.09  5670.99  5677.68  5727.55

 Zero-point correction=                           0.369470 (Hartree/Particle)
 Thermal correction to Energy=                    0.393862
 Thermal correction to Enthalpy=                  0.394806
 Thermal correction to Gibbs Free Energy=         0.313382
 Sum of electronic and zero-point Energies=           -881.103063
 Sum of electronic and thermal Energies=              -881.078671
 Sum of electronic and thermal Enthalpies=            -881.077726
 Sum of electronic and thermal Free Energies=         -881.159150

                     E (Thermal)             CV                S
                      KCal/Mol        Cal/Mol-Kelvin    Cal/Mol-Kelvin
 Total                  247.152             86.299            171.370
 Electronic               0.000              0.000              0.000
 Translational            0.889              2.981             42.487
 Rotational               0.889              2.981             33.675
 Vibrational            245.374             80.337             95.208
 Vibration     1          0.593              1.987              7.550
 Vibration     2          0.593              1.984              6.022
 Vibration     3          0.594              1.982              5.420
 Vibration     4          0.595              1.980              5.116
 Vibration     5          0.595              1.979              4.946
 Vibration     6          0.598              1.970              4.242
 Vibration     7          0.599              1.965              3.967
 Vibration     8          0.600              1.962              3.870
 Vibration     9          0.602              1.957              3.679
 Vibration    10          0.603              1.953              3.575
 Vibration    11          0.604              1.949              3.442
 Vibration    12          0.609              1.934              3.120
 Vibration    13          0.620              1.895              2.589
 Vibration    14          0.623              1.886              2.501
 Vibration    15          0.630              1.866              2.320
 Vibration    16          0.634              1.853              2.225
 Vibration    17          0.639              1.836              2.105
 Vibration    18          0.640              1.833              2.089
 Vibration    19          0.648              1.807              1.940
 Vibration    20          0.668              1.747              1.666
 Vibration    21          0.669              1.743              1.650
 Vibration    22          0.674              1.728              1.596
 Vibration    23          0.676              1.721              1.571
 Vibration    24          0.682              1.704              1.510
 Vibration    25          0.690              1.681              1.438
 Vibration    26          0.698              1.657              1.370
 Vibration    27          0.712              1.617              1.265
 Vibration    28          0.715              1.609              1.243
 Vibration    29          0.756              1.495              1.007
 Vibration    30          0.764              1.475              0.971
 Vibration    31          0.775              1.448              0.925
 Vibration    32          0.786              1.418              0.879
 Vibration    33          0.875              1.205              0.609
 Vibration    34          0.913              1.124              0.529
 Vibration    35          0.937              1.073              0.484
 Vibration    36          0.956              1.036              0.453

                           ! Non-Optimized Parameters !
 Normal termination of Gaussian 16 at Thu Dec  8 17:04:12 2022.
