 Gaussian 16, Revision A.03,
 Gaussian 16:  ES64L-G16RevA.03 25-Dec-2016

 -----------------------------
 # wB97XD/aug-cc-pVDZ opt freq
 -----------------------------

 ----
 blah
 ----
 Symbolic Z-matrix:
 Charge =  1 Multiplicity = 1

 SCF Done:  E(RwB97XD) =  -881.412631244     A.U. after   15 cycles
 SCF Done:  E(RwB97XD) =  -881.443528013     A.U. after   13 cycles
 SCF Done:  E(RwB97XD) =  -881.446571325     A.U. after   16 cycles
 SCF Done:  E(RwB97XD) =  -881.459402812     A.U. after   16 cycles
 SCF Done:  E(RwB97XD) =  -881.457985674     A.U. after   15 cycles
 SCF Done:  E(RwB97XD) =  -881.466926546     A.U. after   12 cycles
 SCF Done:  E(RwB97XD) =  -881.470309142     A.U. after   13 cycles
 SCF Done:  E(RwB97XD) =  -881.473047544     A.U. after   13 cycles
 SCF Done:  E(RwB97XD) =  -881.474208373     A.U. after   13 cycles
 SCF Done:  E(RwB97XD) =  -881.474682144     A.U. after   12 cycles
 SCF Done:  E(RwB97XD) =  -881.475709432     A.U. after   11 cycles
 SCF Done:  E(RwB97XD) =  -881.475715095     A.U. after   11 cycles
 SCF Done:  E(RwB97XD) =  -881.475715061     A.U. after   11 cycles
 SCF Done:  E(RwB97XD) =  -881.475717435     A.U. after   12 cycles
 SCF Done:  E(RwB97XD) =  -881.475722069     A.U. after   11 cycles
 SCF Done:  E(RwB97XD) =  -881.475722637     A.U. after    9 cycles
 SCF Done:  E(RwB97XD) =  -881.475723407     A.U. after   10 cycles
 SCF Done:  E(RwB97XD) =  -881.475723810     A.U. after    9 cycles
 SCF Done:  E(RwB97XD) =  -881.475723956     A.U. after    9 cycles
 Optimization completed.
    -- Stationary point found.
 Normal termination of Gaussian 16 at Wed Dec 14 03:35:58 2022.

 ----------------------------------------------------------------------
 #N Geom=AllCheck Guess=TCheck SCRF=Check GenChk RwB97XD/Aug-CC-pVDZ Fr
 eq
 ----------------------------------------------------------------------

 Structure from the checkpoint file:  "/gscratch/scrubbed/gds001/Gau-17425.chk"
 ----
 blah
 ----
 Charge =  1 Multiplicity = 1

                         Standard orientation:
 ---------------------------------------------------------------------
 Center     Atomic      Atomic             Coordinates (Angstroms)
 Number     Number       Type             X           Y           Z
 ---------------------------------------------------------------------
      1          6           0        2.318759   -0.240390   -1.774625
      2          6           0        2.173925    0.597927   -0.478942
      3          7           0        2.325367   -0.373051    0.615240
      4          6           0        3.297942   -1.356063    0.124264
      5          6           0        2.822312   -1.619883   -1.299620
      6          6           0        0.882048    1.374252   -0.339737
      7          6           0        0.869493    2.704733    0.081718
      8          6           0       -0.331346    3.399935    0.236182
      9          6           0       -1.513731    2.747531   -0.049056
     10          7           0       -1.481452    1.470627   -0.462851
     11          6           0       -0.345944    0.775542   -0.603992
     12          8           0       -3.610429   -1.923614    0.279052
     13          8           0       -2.089770   -0.637338    2.017739
     14          8           0        0.092733   -1.930993    1.263772
     15          8           0       -1.276047   -2.310965   -1.184069
     16          1           0        3.288968   -2.244690    0.766093
     17          1           0        3.615509   -2.021021   -1.938029
     18          1           0        1.999902   -2.345776   -1.286169
     19          1           0        3.036239    0.244036   -2.445309
     20          1           0        1.375170   -0.320873   -2.325086
     21          1           0        4.320318   -0.932904    0.129703
     22          1           0        3.001652    1.330771   -0.432032
     23          1           0       -0.462304   -0.257567   -0.933037
     24          1           0       -2.496936    3.203336    0.035567
     25          1           0       -0.348877    4.434834    0.569003
     26          1           0        1.813784    3.206945    0.294460
     27          6           0        2.689505    0.230648    1.889344
     28          1           0       -2.395980    1.008511   -0.693644
     29          1           0        0.869128   -1.377466    1.015656
     30          1           0       -0.223170   -2.310689    0.428918
     31          1           0       -3.156867   -1.523568    1.064208
     32          1           0       -4.244621   -2.564528    0.609816
     33          1           0       -2.222628   -0.605116    2.968013
     34          1           0       -1.222514   -1.094176    1.867398
     35          1           0       -2.166913   -2.348216   -0.787973
     36          1           0       -1.248854   -3.003201   -1.848764
     37          8           0       -3.893291    0.432505   -1.008238
     38          1           0       -4.007408   -0.456944   -0.614878
     39          1           0       -4.329709    0.423966   -1.863241
     40          1           0        1.895497    0.909491    2.226242
     41          1           0        3.637628    0.795265    1.822709
     42          1           0        2.802245   -0.555593    2.644379
 ---------------------------------------------------------------------

 SCF Done:  E(RwB97XD) =  -881.475723956     A.U. after    1 cycles

 The electronic state is 1-A.
 Alpha  occ. eigenvalues --  -19.39961 -19.39947 -19.39196 -19.37924 -19.35908
 Alpha  occ. eigenvalues --  -14.67198 -14.57347 -10.50614 -10.50200 -10.47437
 Alpha  occ. eigenvalues --  -10.46770 -10.46506 -10.46029 -10.42713 -10.42680
 Alpha  occ. eigenvalues --  -10.41219 -10.40204  -1.25722  -1.24933  -1.23839
 Alpha  occ. eigenvalues --   -1.23118  -1.22119  -1.19943  -1.16847  -1.07899
 Alpha  occ. eigenvalues --   -1.04319  -1.00201  -0.95623  -0.90333  -0.89360
 Alpha  occ. eigenvalues --   -0.88243  -0.82112  -0.79511  -0.78971  -0.76756
 Alpha  occ. eigenvalues --   -0.74993  -0.74385  -0.74089  -0.73218  -0.73123
 Alpha  occ. eigenvalues --   -0.71958  -0.70020  -0.69105  -0.68886  -0.67669
 Alpha  occ. eigenvalues --   -0.65263  -0.64170  -0.63807  -0.63247  -0.62588
 Alpha  occ. eigenvalues --   -0.61277  -0.60177  -0.59721  -0.58842  -0.58299
 Alpha  occ. eigenvalues --   -0.56571  -0.56344  -0.55708  -0.55259  -0.53759
 Alpha  occ. eigenvalues --   -0.53504  -0.53382  -0.53044  -0.52267  -0.51971
 Alpha  occ. eigenvalues --   -0.51544  -0.50016  -0.48780  -0.43482
 Alpha virt. eigenvalues --   -0.13462  -0.10646  -0.06612  -0.05385  -0.04628
 Alpha virt. eigenvalues --   -0.04507  -0.03537  -0.03346  -0.02939  -0.02891
 Alpha virt. eigenvalues --   -0.01791  -0.01379  -0.01096  -0.00582  -0.00346

 Mulliken charges:
               1
     1  C    1.220706
     2  C    0.833164
     3  N   -1.444634
     4  C    1.425645
     5  C    0.820638
     6  C    0.779498
     7  C    1.293469
     8  C    0.264135
     9  C    0.899399
    10  N    0.095705
    11  C    1.010327
    12  O   -0.611381
    13  O   -0.414538
    14  O   -0.560673
    15  O   -0.551730
    16  H   -0.491329
    17  H   -0.338677
    18  H   -0.305598
    19  H   -0.459974
    20  H   -0.447977
    21  H   -0.449581
    22  H   -0.796932
    23  H   -1.281998
    24  H   -0.722415
    25  H   -0.582041
    26  H   -0.934547
    27  C    1.047420
    28  H    0.061360
    29  H    0.355744
    30  H    0.284762
    31  H    0.340616
    32  H    0.220046
    33  H    0.146815
    34  H    0.333193
    35  H    0.257039
    36  H    0.265644
    37  O   -0.401469
    38  H    0.201353
    39  H    0.184727
    40  H   -0.145023
    41  H   -0.207138
    42  H   -0.193751
 Sum of Mulliken charges =   1.00000

 Dipole moment (field-independent basis, Debye):
    X=             -2.7293    Y=              2.4802    Z=             -1.2712  Tot=              3.9009
 Quadrupole moment (field-independent basis, Debye-Ang):
   XX=            -58.6638   YY=            -70.1744   ZZ=            -89.0138
   XY=              7.4089   XZ=              2.2997   YZ=              5.5378

  Exact polarizability: 191.736  -9.324 179.281   2.195  10.200 142.308
 Approx polarizability: 198.564  -2.468 194.442   2.357  12.655 160.393

                      1                      2                      3
                      A                      A                      A
 Frequencies --     10.3408                18.5439                39.3465
 Red. masses --      3.3936                 4.1551                 3.8820
 Frc consts  --      0.0002                 0.0008                 0.0035
 IR Inten    --      1.0636                 0.5705                 0.9133

                      4                      5                      6
                      A                      A                      A
 Frequencies --     51.3548                56.6026                62.4442
 Red. masses --      5.0648                 5.3303                 3.9625
 Frc consts  --      0.0079                 0.0101                 0.0091
 IR Inten    --      1.1953                 0.2994                 0.6691

                      7                      8                      9
                      A                      A                      A
 Frequencies --     67.1923                76.5910                90.6083
 Red. masses --      5.9529                 4.8130                 4.5262
 Frc consts  --      0.0158                 0.0166                 0.0219
 IR Inten    --      2.1554                 1.4531                 1.4803

                     10                     11                     12
                      A                      A                      A
 Frequencies --    105.9465               121.7743               162.9824
 Red. masses --      4.7362                 4.1379                 5.0687
 Frc consts  --      0.0313                 0.0362                 0.0793
 IR Inten    --      1.9765                 4.4591                 7.8144

                     13                     14                     15
                      A                      A                      A
 Frequencies --    198.7353               203.2420               205.3651
 Red. masses --      4.0731                 1.8665                 4.3370
 Frc consts  --      0.0948                 0.0454                 0.1078
 IR Inten    --      4.0076                 1.9965                 7.1256

                     16                     17                     18
                      A                      A                      A
 Frequencies --    215.8961               227.4000               238.8372
 Red. masses --      4.6589                 3.9878                 1.3007
 Frc consts  --      0.1279                 0.1215                 0.0437
 IR Inten    --      2.6496                 7.5609                89.0504

                     19                     20                     21
                      A                      A                      A
 Frequencies --    256.4891               266.6507               268.9561
 Red. masses --      1.5519                 1.5856                 3.7398
 Frc consts  --      0.0602                 0.0664                 0.1594
 IR Inten    --      2.5785                11.9456                53.8051

                     22                     23                     24
                      A                      A                      A
 Frequencies --    277.9890               286.8872               309.7245
 Red. masses --      1.5725                 3.1615                 3.7853
 Frc consts  --      0.0716                 0.1533                 0.2139
 IR Inten    --     32.9839                14.2425                44.3983

                     25                     26                     27
                      A                      A                      A
 Frequencies --    335.2850               349.1547               361.1693
 Red. masses --      4.3119                 1.1637                 1.1176
 Frc consts  --      0.2856                 0.0836                 0.0859
 IR Inten    --      0.6027                 3.8281                52.4625

                     28                     29                     30
                      A                      A                      A
 Frequencies --    389.4234               400.3509               419.4545
 Red. masses --      2.7678                 2.6825                 2.6617
 Frc consts  --      0.2473                 0.2533                 0.2759
 IR Inten    --      5.5666                 8.5302                20.1980

                     31                     32                     33
                      A                      A                      A
 Frequencies --    434.1867               484.8077               518.3749
 Red. masses --      1.0892                 1.1309                 1.0909
 Frc consts  --      0.1210                 0.1566                 0.1727
 IR Inten    --     28.6825                37.9119               201.4321

                     34                     35                     36
                      A                      A                      A
 Frequencies --    559.1611               576.7043               598.9238
 Red. masses --      3.5937                 2.0592                 1.2030
 Frc consts  --      0.6620                 0.4035                 0.2543
 IR Inten    --      5.3473                 9.2221                34.3614

                     37                     38                     39
                      A                      A                      A
 Frequencies --    618.6293               635.4989               649.2217
 Red. masses --      1.1380                 3.9138                 4.2239
 Frc consts  --      0.2566                 0.9313                 1.0489
 IR Inten    --     93.4494                21.4507                 2.0291

                     40                     41                     42
                      A                      A                      A
 Frequencies --    653.6093               670.6089               717.7965
 Red. masses --      3.3967                 1.0929                 1.8193
 Frc consts  --      0.8550                 0.2896                 0.5523
 IR Inten    --      6.0251               257.9608                33.3736

                     43                     44                     45
                      A                      A                      A
 Frequencies --    741.6612               772.5871               776.7923
 Red. masses --      1.1204                 1.2047                 1.6487
 Frc consts  --      0.3631                 0.4237                 0.5862
 IR Inten    --      9.9697                51.3989                28.8647

                     46                     47                     48
                      A                      A                      A
 Frequencies --    813.1631               838.0814               860.5611
 Red. masses --      1.0632                 1.5541                 2.0361
 Frc consts  --      0.4142                 0.6431                 0.8884
 IR Inten    --    121.9083                37.4892                10.4445

                     49                     50                     51
                      A                      A                      A
 Frequencies --    901.8969               923.0306               935.2162
 Red. masses --      1.2471                 1.5031                 2.8181
 Frc consts  --      0.5977                 0.7545                 1.4522
 IR Inten    --     34.9482                 7.9411                10.6887

                     52                     53                     54
                      A                      A                      A
 Frequencies --    960.5905               982.9996               989.8064
 Red. masses --      2.2849                 1.3727                 1.6335
 Frc consts  --      1.2422                 0.7815                 0.9429
 IR Inten    --      8.1178                 5.1234                 3.8850

                     55                     56                     57
                      A                      A                      A
 Frequencies --   1007.2751              1035.8621              1044.8741
 Red. masses --      1.6479                 1.3723                 3.8586
 Frc consts  --      0.9851                 0.8675                 2.4820
 IR Inten    --      4.9166                 1.0317                 2.6163

                     58                     59                     60
                      A                      A                      A
 Frequencies --   1057.7025              1065.2324              1076.7195
 Red. masses --      1.1244                 1.8381                 2.0669
 Frc consts  --      0.7412                 1.2289                 1.4118
 IR Inten    --     74.2481                39.1828                 3.7612

                     61                     62                     63
                      A                      A                      A
 Frequencies --   1094.2889              1106.0109              1140.3625
 Red. masses --      2.1048                 2.0411                 1.2593
 Frc consts  --      1.4850                 1.4711                 0.9649
 IR Inten    --      1.1726                 9.4832                 4.1624

                     64                     65                     66
                      A                      A                      A
 Frequencies --   1150.7084              1186.5380              1195.5092
 Red. masses --      1.5242                 1.5763                 1.1086
 Frc consts  --      1.1891                 1.3075                 0.9335
 IR Inten    --     11.1842                 8.1424                36.2223

                     67                     68                     69
                      A                      A                      A
 Frequencies --   1214.0003              1225.7492              1239.6970
 Red. masses --      1.4185                 1.4652                 1.8106
 Frc consts  --      1.2317                 1.2970                 1.6395
 IR Inten    --      5.2726                 7.5806                20.5148

                     70                     71                     72
                      A                      A                      A
 Frequencies --   1257.0291              1271.6774              1274.7198
 Red. masses --      1.7500                 1.7435                 1.7946
 Frc consts  --      1.6292                 1.6612                 1.7181
 IR Inten    --      4.5779                16.1496                10.7218

                     73                     74                     75
                      A                      A                      A
 Frequencies --   1310.5721              1325.7677              1338.3975
 Red. masses --      1.3241                 2.0796                 1.3369
 Frc consts  --      1.3400                 2.1536                 1.4110
 IR Inten    --      2.8794                12.9087                 1.8697

                     76                     77                     78
                      A                      A                      A
 Frequencies --   1355.5878              1377.0072              1382.5358
 Red. masses --      1.4237                 1.9534                 1.5843
 Frc consts  --      1.5414                 2.1823                 1.7842
 IR Inten    --      3.2091                15.6767                 4.6268

                     79                     80                     81
                      A                      A                      A
 Frequencies --   1392.6543              1438.4158              1451.4482
 Red. masses --      1.6841                 1.5678                 1.2263
 Frc consts  --      1.9244                 1.9112                 1.5221
 IR Inten    --      9.4984                24.8818                 3.8746

                     82                     83                     84
                      A                      A                      A
 Frequencies --   1485.0172              1485.8657              1490.1913
 Red. masses --      1.0632                 1.0567                 1.0728
 Frc consts  --      1.3814                 1.3745                 1.4036
 IR Inten    --      6.8925                10.4518                 7.8955

                     85                     86                     87
                      A                      A                      A
 Frequencies --   1503.7407              1515.4329              1523.5936
 Red. masses --      1.1130                 1.4034                 1.5139
 Frc consts  --      1.4828                 1.8989                 2.0706
 IR Inten    --      8.2239                17.8310                12.0524

                     88                     89                     90
                      A                      A                      A
 Frequencies --   1623.1861              1644.4329              1653.4389
 Red. masses --      1.6957                 1.1214                 1.2344
 Frc consts  --      2.6323                 1.7866                 1.9883
 IR Inten    --     38.5289                73.9286                 7.4797

                     91                     92                     93
                      A                      A                      A
 Frequencies --   1658.9891              1674.8220              1702.7911
 Red. masses --      1.0727                 1.2002                 1.9201
 Frc consts  --      1.7395                 1.9835                 3.2802
 IR Inten    --     55.3904                96.7802                 7.1206

                     94                     95                     96
                      A                      A                      A
 Frequencies --   1708.1695              1724.6106              2978.6918
 Red. masses --      1.4294                 2.4160                 1.0837
 Frc consts  --      2.4573                 4.2339                 5.6652
 IR Inten    --     13.5772                30.1997                32.9255

                     97                     98                     99
                      A                      A                      A
 Frequencies --   2986.9866              2991.0567              3000.2631
 Red. masses --      1.0707                 1.0514                 1.0974
 Frc consts  --      5.6283                 5.5419                 5.8202
 IR Inten    --     66.2238                71.4662              1671.8372

                    100                    101                    102
                      A                      A                      A
 Frequencies --   3087.8107              3098.9982              3103.1366
 Red. masses --      1.0647                 1.0638                 1.0860
 Frc consts  --      5.9812                 6.0194                 6.1615
 IR Inten    --     16.2447                19.5119                20.2724

                    103                    104                    105
                      A                      A                      A
 Frequencies --   3126.8730              3142.4590              3148.8176
 Red. masses --      1.0936                 1.1042                 1.1030
 Frc consts  --      6.2996                 6.4246                 6.4433
 IR Inten    --     12.2868                 2.7987                10.8271

                    106                    107                    108
                      A                      A                      A
 Frequencies --   3160.6267              3201.7404              3211.7726
 Red. masses --      1.1045                 1.0990                 1.0926
 Frc consts  --      6.5005                 6.6377                 6.6403
 IR Inten    --     30.3634                55.5955                 0.4556

                    109                    110                    111
                      A                      A                      A
 Frequencies --   3243.7670              3247.3695              3263.2327
 Red. masses --      1.0676                 1.0928                 1.1006
 Frc consts  --      6.6184                 6.7901                 6.9050
 IR Inten    --   1475.8975                 8.1117                 3.8425

                    112                    113                    114
                      A                      A                      A
 Frequencies --   3346.0601              3407.2575              3545.5826
 Red. masses --      1.0659                 1.0665                 1.0621
 Frc consts  --      7.0310                 7.2951                 7.8664
 IR Inten    --    759.9746               593.5002               547.3186

                    115                    116                    117
                      A                      A                      A
 Frequencies --   3634.2081              3745.2098              3931.7342
 Red. masses --      1.0595                 1.0665                 1.0669
 Frc consts  --      8.2448                 8.8141                 9.7169
 IR Inten    --    627.1105               304.4306                94.2059

                    118                    119                    120
                      A                      A                      A
 Frequencies --   3937.4108              3940.5148              3943.7676
 Red. masses --      1.0668                 1.0693                 1.0694
 Frc consts  --      9.7446                 9.7829                 9.7993
 IR Inten    --    122.1406                82.9763               128.3631

 - Thermochemistry -
 -------------------
 Temperature   298.150 Kelvin.  Pressure   1.00000 Atm.
 Atom     1 has atomic number  6 and mass  12.00000

 Molecular mass:   253.17635 amu.
 Principal axes and moments of inertia in atomic units:
                           1         2         3
     Eigenvalues --  3759.916495813.728727380.19098
           X            0.99997   0.00752   0.00271
           Y           -0.00756   0.99984   0.01637
           Z           -0.00259  -0.01639   0.99986
 This molecule is an asymmetric top.
 Rotational symmetry number  1.
 Warning -- assumption of classical behavior for rotation
           may cause significant error
 Rotational temperatures (Kelvin)      0.02304     0.01490     0.01174
 Rotational constants (GHZ):           0.48000     0.31043     0.24454
 Zero-point vibrational energy     972113.1 (Joules/Mol)
                                  232.34061 (Kcal/Mol)
 Warning -- explicit consideration of  37 degrees of freedom as
           vibrations may cause significant error
 Vibrational temperatures:     14.88    26.68    56.61    73.89    81.44
          (Kelvin)             89.84    96.67   110.20   130.37   152.43
                              175.21   234.50   285.94   292.42   295.47
                              310.63   327.18   343.63   369.03   383.65
                              386.97   399.96   412.77   445.62   482.40
                              502.36   519.64   560.29   576.02   603.50
                              624.70   697.53   745.83   804.51   829.75
                              861.72   890.07   914.34   934.09   940.40
                              964.86  1032.75  1067.09  1111.58  1117.63
                             1169.96  1205.81  1238.16  1297.63  1328.04
                             1345.57  1382.08  1414.32  1424.11  1449.24
                             1490.37  1503.34  1521.80  1532.63  1549.16
                             1574.44  1591.30  1640.73  1655.61  1707.16
                             1720.07  1746.68  1763.58  1783.65  1808.58
                             1829.66  1834.04  1885.62  1907.48  1925.66
                             1950.39  1981.21  1989.16  2003.72  2069.56
                             2088.31  2136.61  2137.83  2144.05  2163.55
                             2180.37  2192.11  2335.40  2365.97  2378.93
                             2386.92  2409.70  2449.94  2457.67  2481.33
                             4285.67  4297.61  4303.46  4316.71  4442.67
                             4458.77  4464.72  4498.87  4521.30  4530.45
                             4547.44  4606.59  4621.02  4667.06  4672.24
                             4695.06  4814.23  4902.28  5101.30  5228.81
                             5388.52  5656.89  5665.06  5669.52  5674.20

 Zero-point correction=                           0.370258 (Hartree/Particle)
 Thermal correction to Energy=                    0.393831
 Thermal correction to Enthalpy=                  0.394776
 Thermal correction to Gibbs Free Energy=         0.315327
 Sum of electronic and zero-point Energies=           -881.105466
 Sum of electronic and thermal Energies=              -881.081893
 Sum of electronic and thermal Enthalpies=            -881.080948
 Sum of electronic and thermal Free Energies=         -881.160397

                     E (Thermal)             CV                S
                      KCal/Mol        Cal/Mol-Kelvin    Cal/Mol-Kelvin
 Total                  247.133             85.276            167.214
 Electronic               0.000              0.000              0.000
 Translational            0.889              2.981             42.487
 Rotational               0.889              2.981             33.444
 Vibrational            245.355             79.315             91.282
 Vibration     1          0.593              1.987              7.944
 Vibration     2          0.593              1.986              6.784
 Vibration     3          0.594              1.981              5.292
 Vibration     4          0.596              1.977              4.765
 Vibration     5          0.596              1.975              4.572
 Vibration     6          0.597              1.972              4.378
 Vibration     7          0.598              1.970              4.234
 Vibration     8          0.599              1.965              3.976
 Vibration     9          0.602              1.956              3.647
 Vibration    10          0.605              1.944              3.342
 Vibration    11          0.609              1.931              3.072
 Vibration    12          0.623              1.888              2.515
 Vibration    13          0.637              1.842              2.145
 Vibration    14          0.639              1.835              2.104
 Vibration    15          0.640              1.832              2.084
 Vibration    16          0.645              1.817              1.993
 Vibration    17          0.651              1.799              1.899
 Vibration    18          0.657              1.781              1.812
 Vibration    19          0.666              1.752              1.686
 Vibration    20          0.672              1.734              1.618
 Vibration    21          0.673              1.730              1.603
 Vibration    22          0.679              1.714              1.546
 Vibration    23          0.684              1.698              1.492
 Vibration    24          0.699              1.655              1.364
 Vibration    25          0.716              1.605              1.234
 Vibration    26          0.726              1.577              1.170
 Vibration    27          0.735              1.552              1.117
 Vibration    28          0.757              1.493              1.002
 Vibration    29          0.766              1.469              0.961
 Vibration    30          0.782              1.428              0.894
 Vibration    31          0.795              1.396              0.845
 Vibration    32          0.841              1.284              0.697
 Vibration    33          0.873              1.209              0.614
 Vibration    34          0.915              1.120              0.526
 Vibration    35          0.933              1.082              0.492
 Vibration    36          0.957              1.034              0.452
 Vibration    37          0.978              0.993              0.419

                           ! Non-Optimized Parameters !
 Normal termination of Gaussian 16 at Wed Dec 14 05:10:53 2022.
