 Gaussian 16, Revision A.03,
 Gaussian 16:  ES64L-G16RevA.03 25-Dec-2016

 -----------------------------
 # wB97XD/aug-cc-pVDZ Opt Freq
 -----------------------------

 -------------------------------
 p-Py Nornicotine, W anti , 5H2O
 -------------------------------
 Symbolic Z-matrix:
 Charge =  1 Multiplicity = 1

 SCF Done:  E(RwB97XD) =  -881.474158807     A.U. after   15 cycles
 SCF Done:  E(RwB97XD) =  -881.474852306     A.U. after   12 cycles
 SCF Done:  E(RwB97XD) =  -881.474979310     A.U. after   13 cycles
 SCF Done:  E(RwB97XD) =  -881.475091096     A.U. after   11 cycles
 SCF Done:  E(RwB97XD) =  -881.475169418     A.U. after   12 cycles
 SCF Done:  E(RwB97XD) =  -881.475206034     A.U. after   12 cycles
 SCF Done:  E(RwB97XD) =  -881.475243708     A.U. after   12 cycles
 SCF Done:  E(RwB97XD) =  -881.475284455     A.U. after   12 cycles
 SCF Done:  E(RwB97XD) =  -881.475312863     A.U. after   13 cycles
 SCF Done:  E(RwB97XD) =  -881.475319420     A.U. after   12 cycles
 SCF Done:  E(RwB97XD) =  -881.475521204     A.U. after   14 cycles
 SCF Done:  E(RwB97XD) =  -881.475544507     A.U. after   13 cycles
 SCF Done:  E(RwB97XD) =  -881.475546460     A.U. after   11 cycles
 SCF Done:  E(RwB97XD) =  -881.475549047     A.U. after   12 cycles
 SCF Done:  E(RwB97XD) =  -881.475550648     A.U. after   12 cycles
 SCF Done:  E(RwB97XD) =  -881.475551644     A.U. after   11 cycles
 SCF Done:  E(RwB97XD) =  -881.475552609     A.U. after   11 cycles
 SCF Done:  E(RwB97XD) =  -881.475552980     A.U. after   11 cycles
 SCF Done:  E(RwB97XD) =  -881.475553185     A.U. after    9 cycles
 Optimization completed.
    -- Stationary point found.
 Normal termination of Gaussian 16 at Sat Sep  5 05:37:09 2020.

 ----------------------------------------------------------------------
 #N Geom=AllCheck Guess=TCheck SCRF=Check GenChk RwB97XD/Aug-CC-pVDZ Fr
 eq
 ----------------------------------------------------------------------

 Structure from the checkpoint file:  "NicPyWa5h20.chk"
 -------------------------------
 p-Py Nornicotine, W anti , 5H2O
 -------------------------------
 Charge =  1 Multiplicity = 1

                         Standard orientation:
 ---------------------------------------------------------------------
 Center     Atomic      Atomic             Coordinates (Angstroms)
 Number     Number       Type             X           Y           Z
 ---------------------------------------------------------------------
      1          6           0        2.152295   -0.378756   -1.738924
      2          6           0        2.090157    0.578036   -0.527400
      3          7           0        2.302748   -0.294952    0.634884
      4          6           0        3.336585   -1.240288    0.195479
      5          6           0        2.880153   -1.636046   -1.207967
      6          6           0        0.820401    1.389261   -0.387479
      7          6           0        0.857336    2.750300   -0.077476
      8          6           0       -0.317969    3.486088    0.080382
      9          6           0       -1.527628    2.841908   -0.086075
     10          7           0       -1.544591    1.535159   -0.391721
     11          6           0       -0.432516    0.803386   -0.536229
     12          8           0       -3.955301    0.416308   -0.765336
     13          8           0       -3.502733   -2.094499    0.106085
     14          8           0       -1.129101   -2.456696   -1.059365
     15          8           0        0.198608   -2.060512    1.164479
     16          1           0        3.395571   -2.082954    0.893899
     17          1           0        3.720843   -1.933516   -1.842226
     18          1           0        2.187519   -2.483522   -1.150666
     19          1           0        2.688478    0.098371   -2.565876
     20          1           0        1.152426   -0.632408   -2.107750
     21          1           0        4.325287   -0.744595    0.166040
     22          1           0        2.929372    1.297601   -0.597220
     23          1           0       -0.583516   -0.247502   -0.779821
     24          1           0       -2.494299    3.329308    0.012719
     25          1           0       -0.295826    4.545055    0.325637
     26          1           0        1.821938    3.244020    0.044383
     27          6           0        2.648392    0.417167    1.856705
     28          1           0       -2.476537    1.070216   -0.533716
     29          1           0       -0.545515   -2.452045   -0.252938
     30          1           0       -0.868045   -3.207707   -1.597174
     31          1           0       -3.977064   -0.529008   -0.508670
     32          1           0       -4.473731    0.498824   -1.569268
     33          1           0       -4.067204   -2.861329    0.228899
     34          1           0       -2.703278   -2.390273   -0.392367
     35          1           0        0.920724   -1.405989    1.019801
     36          1           0       -0.485119   -1.587778    1.668943
     37          8           0       -2.063716   -0.605596    1.984239
     38          1           0       -2.716631   -1.168163    1.531617
     39          1           0       -2.390700   -0.488858    2.879629
     40          1           0        1.817681    1.063321    2.167712
     41          1           0        3.555877    1.036513    1.730762
     42          1           0        2.829352   -0.307411    2.658606
 ---------------------------------------------------------------------

 SCF Done:  E(RwB97XD) =  -881.475553185     A.U. after    1 cycles

 The electronic state is 1-A.
 Alpha  occ. eigenvalues --  -19.40125 -19.39964 -19.38650 -19.38439 -19.35731
 Alpha  occ. eigenvalues --  -14.67300 -14.57353 -10.50788 -10.50336 -10.47550
 Alpha  occ. eigenvalues --  -10.46903 -10.46628 -10.46012 -10.42701 -10.42662
 Alpha  occ. eigenvalues --  -10.41095 -10.40083  -1.25812  -1.25037  -1.23832
 Alpha  occ. eigenvalues --   -1.22772  -1.22517  -1.19792  -1.16878  -1.08001
 Alpha  occ. eigenvalues --   -1.04440  -1.00103  -0.95586  -0.90437  -0.89343
 Alpha  occ. eigenvalues --   -0.88354  -0.82218  -0.79363  -0.79076  -0.76639
 Alpha  occ. eigenvalues --   -0.75264  -0.74482  -0.73912  -0.73649  -0.73108
 Alpha  occ. eigenvalues --   -0.72075  -0.70135  -0.68846  -0.68643  -0.67836
 Alpha  occ. eigenvalues --   -0.65272  -0.64278  -0.63910  -0.63366  -0.62290
 Alpha  occ. eigenvalues --   -0.61153  -0.60070  -0.59794  -0.59126  -0.58185
 Alpha  occ. eigenvalues --   -0.56634  -0.56301  -0.55759  -0.55199  -0.53964
 Alpha  occ. eigenvalues --   -0.53398  -0.53318  -0.53059  -0.52071  -0.51788
 Alpha  occ. eigenvalues --   -0.51679  -0.49793  -0.49033  -0.43538
 Alpha virt. eigenvalues --   -0.13596  -0.10739  -0.06594  -0.05413  -0.04588
 Alpha virt. eigenvalues --   -0.04568  -0.03546  -0.03415  -0.02936  -0.02814
 Alpha virt. eigenvalues --   -0.01752  -0.01345  -0.01225  -0.00379  -0.00302

 Mulliken charges:
               1
     1  C    1.147089
     2  C    0.863631
     3  N   -1.399415
     4  C    1.343560
     5  C    0.852348
     6  C    0.603928
     7  C    1.303915
     8  C    0.317975
     9  C    0.795720
    10  N    0.050664
    11  C    1.218102
    12  O   -0.401993
    13  O   -0.622361
    14  O   -0.487864
    15  O   -0.514106
    16  H   -0.517032
    17  H   -0.311424
    18  H   -0.341290
    19  H   -0.493289
    20  H   -0.358340
    21  H   -0.484822
    22  H   -0.810005
    23  H   -1.267941
    24  H   -0.702873
    25  H   -0.584486
    26  H   -0.934044
    27  C    1.078063
    28  H    0.053413
    29  H    0.302050
    30  H    0.185447
    31  H    0.200182
    32  H    0.185625
    33  H    0.219298
    34  H    0.332212
    35  H    0.380329
    36  H    0.303292
    37  O   -0.451384
    38  H    0.222367
    39  H    0.231411
    40  H   -0.155003
    41  H   -0.163700
    42  H   -0.189248
 Sum of Mulliken charges =   1.00000

 Dipole moment (field-independent basis, Debye):
    X=             -2.9768    Y=              2.9423    Z=             -1.1385  Tot=              4.3377
 Quadrupole moment (field-independent basis, Debye-Ang):
   XX=            -58.4682   YY=            -67.1361   ZZ=            -91.7084
   XY=              6.3286   XZ=              1.5579   YZ=              4.7760

  Exact polarizability: 191.977  -9.073 182.364   1.606   8.570 139.527
 Approx polarizability: 198.930  -2.287 197.020   0.858  10.111 157.478

                      1                      2                      3
                      A                      A                      A
 Frequencies --     19.4709                27.0234                38.9898
 Red. masses --      4.2153                 3.9996                 2.9098
 Frc consts  --      0.0009                 0.0017                 0.0026
 IR Inten    --      1.4045                 0.4816                 0.4501

                      4                      5                      6
                      A                      A                      A
 Frequencies --     57.7439                61.9532                67.2867
 Red. masses --      4.9420                 4.7331                 4.1259
 Frc consts  --      0.0097                 0.0107                 0.0110
 IR Inten    --      0.6328                 0.5388                 0.8971

                      7                      8                      9
                      A                      A                      A
 Frequencies --     69.6193                77.2776                91.4703
 Red. masses --      6.1739                 4.8347                 5.6730
 Frc consts  --      0.0176                 0.0170                 0.0280
 IR Inten    --      2.6534                 0.7672                 1.8517

                     10                     11                     12
                      A                      A                      A
 Frequencies --     98.6575               121.3643               167.4861
 Red. masses --      4.3968                 4.1615                 4.6661
 Frc consts  --      0.0252                 0.0361                 0.0771
 IR Inten    --      2.8251                 3.6560                 4.3048

                     13                     14                     15
                      A                      A                      A
 Frequencies --    179.4450               191.3722               207.6192
 Red. masses --      1.9030                 5.1869                 5.3711
 Frc consts  --      0.0361                 0.1119                 0.1364
 IR Inten    --      0.2523                 1.5662                 9.1255

                     16                     17                     18
                      A                      A                      A
 Frequencies --    211.4041               230.7353               252.4882
 Red. masses --      3.5355                 4.5119                 1.7952
 Frc consts  --      0.0931                 0.1415                 0.0674
 IR Inten    --      6.9528                 9.1411                 7.9866

                     19                     20                     21
                      A                      A                      A
 Frequencies --    257.4905               271.6545               272.5132
 Red. masses --      1.5634                 1.7039                 1.7458
 Frc consts  --      0.0611                 0.0741                 0.0764
 IR Inten    --      5.1376                24.5563                76.6281

                     22                     23                     24
                      A                      A                      A
 Frequencies --    282.2576               296.5528               319.1905
 Red. masses --      1.2670                 3.9092                 2.0457
 Frc consts  --      0.0595                 0.2026                 0.1228
 IR Inten    --     96.5499                10.6061                18.5450

                     25                     26                     27
                      A                      A                      A
 Frequencies --    332.1701               340.7379               359.6101
 Red. masses --      3.0345                 2.1725                 1.1418
 Frc consts  --      0.1973                 0.1486                 0.0870
 IR Inten    --      5.1924                30.7867                44.2790

                     28                     29                     30
                      A                      A                      A
 Frequencies --    392.2528               400.5094               416.2575
 Red. masses --      2.6455                 2.7577                 2.8289
 Frc consts  --      0.2398                 0.2606                 0.2888
 IR Inten    --      8.4445                 6.4171                 9.1392

                     31                     32                     33
                      A                      A                      A
 Frequencies --    428.5584               499.7488               517.7215
 Red. masses --      1.1204                 1.1161                 1.0909
 Frc consts  --      0.1212                 0.1642                 0.1723
 IR Inten    --     54.3508                42.6353               198.2564

                     34                     35                     36
                      A                      A                      A
 Frequencies --    552.1712               564.1416               579.5405
 Red. masses --      2.0247                 1.4221                 2.8503
 Frc consts  --      0.3637                 0.2667                 0.5640
 IR Inten    --     49.7978                54.4381                 1.6329

                     37                     38                     39
                      A                      A                      A
 Frequencies --    612.9496               638.6085               651.5252
 Red. masses --      1.1579                 3.0850                 3.8421
 Frc consts  --      0.2563                 0.7413                 0.9609
 IR Inten    --     16.0691                24.0165                 4.7881

                     40                     41                     42
                      A                      A                      A
 Frequencies --    662.8415               689.8497               712.6230
 Red. masses --      4.1185                 1.1010                 1.8646
 Frc consts  --      1.0661                 0.3087                 0.5579
 IR Inten    --     10.8114               148.5753                25.5186

                     43                     44                     45
                      A                      A                      A
 Frequencies --    766.6962               775.7716               778.2189
 Red. masses --      1.0617                 1.7550                 1.0701
 Frc consts  --      0.3677                 0.6223                 0.3818
 IR Inten    --    192.9914                15.3999               120.6389

                     46                     47                     48
                      A                      A                      A
 Frequencies --    836.9339               841.0825               851.4888
 Red. masses --      1.5172                 1.0791                 2.0833
 Frc consts  --      0.6262                 0.4498                 0.8899
 IR Inten    --     39.6271                43.8513                 3.8617

                     49                     50                     51
                      A                      A                      A
 Frequencies --    902.7551               931.9985               936.0595
 Red. masses --      1.1901                 1.4552                 3.3073
 Frc consts  --      0.5714                 0.7447                 1.7074
 IR Inten    --     25.6288                13.0969                10.6225

                     52                     53                     54
                      A                      A                      A
 Frequencies --    957.2181               973.0296               983.7038
 Red. masses --      2.2009                 1.4189                 1.5100
 Frc consts  --      1.1881                 0.7915                 0.8609
 IR Inten    --     11.0554                 9.4128                 0.6746

                     55                     56                     57
                      A                      A                      A
 Frequencies --   1006.6086              1032.1769              1047.5407
 Red. masses --      1.9336                 1.3913                 4.1907
 Frc consts  --      1.1543                 0.8733                 2.7095
 IR Inten    --      6.4908                 0.6618                 1.6951

                     58                     59                     60
                      A                      A                      A
 Frequencies --   1064.8153              1071.6201              1077.4144
 Red. masses --      2.2729                 1.0951                 1.7795
 Frc consts  --      1.5184                 0.7409                 1.2170
 IR Inten    --      6.1955                84.4554                17.5044

                     61                     62                     63
                      A                      A                      A
 Frequencies --   1094.6005              1111.7618              1141.9905
 Red. masses --      2.0408                 2.2143                 1.2713
 Frc consts  --      1.4406                 1.6125                 0.9769
 IR Inten    --      3.9122                 4.7874                 7.4044

                     64                     65                     66
                      A                      A                      A
 Frequencies --   1151.5381              1192.2488              1196.5211
 Red. masses --      1.5287                 1.1100                 1.6681
 Frc consts  --      1.1943                 0.9297                 1.4071
 IR Inten    --     15.0519                30.5807                14.8469

                     67                     68                     69
                      A                      A                      A
 Frequencies --   1214.2969              1228.5945              1241.5754
 Red. masses --      1.3319                 1.4559                 1.8344
 Frc consts  --      1.1571                 1.2948                 1.6661
 IR Inten    --      6.6002                 7.4412                12.2402

                     70                     71                     72
                      A                      A                      A
 Frequencies --   1255.9510              1269.5461              1283.7915
 Red. masses --      1.7480                 1.7313                 1.7585
 Frc consts  --      1.6246                 1.6440                 1.7075
 IR Inten    --      4.5125                18.2529                 9.3163

                     73                     74                     75
                      A                      A                      A
 Frequencies --   1307.2615              1325.3014              1334.0827
 Red. masses --      1.3389                 1.9021                 1.3725
 Frc consts  --      1.3481                 1.9683                 1.4392
 IR Inten    --      5.9937                13.1339                 0.8085

                     76                     77                     78
                      A                      A                      A
 Frequencies --   1358.9449              1373.9294              1383.4863
 Red. masses --      1.3676                 1.9416                 1.5659
 Frc consts  --      1.4881                 2.1594                 1.7659
 IR Inten    --      4.4110                13.2006                 4.3975

                     79                     80                     81
                      A                      A                      A
 Frequencies --   1398.4585              1442.7314              1452.4725
 Red. masses --      1.7864                 1.5524                 1.2521
 Frc consts  --      2.0584                 1.9038                 1.5563
 IR Inten    --      8.7875                23.6288                 5.7795

                     82                     83                     84
                      A                      A                      A
 Frequencies --   1485.7350              1486.5170              1490.4001
 Red. masses --      1.0711                 1.0447                 1.0756
 Frc consts  --      1.3930                 1.3601                 1.4077
 IR Inten    --      6.5788                15.1706                 7.1346

                     85                     86                     87
                      A                      A                      A
 Frequencies --   1505.4028              1516.5383              1524.6623
 Red. masses --      1.1076                 1.4837                 1.4474
 Frc consts  --      1.4789                 2.0105                 1.9824
 IR Inten    --      7.5281                20.0415                10.5217

                     88                     89                     90
                      A                      A                      A
 Frequencies --   1625.5546              1640.7708              1653.2074
 Red. masses --      1.4755                 1.3439                 1.0794
 Frc consts  --      2.2971                 2.1316                 1.7382
 IR Inten    --     80.0988                36.5456                61.7065

                     91                     92                     93
                      A                      A                      A
 Frequencies --   1659.1951              1669.9702              1698.2241
 Red. masses --      1.1435                 1.1798                 1.0918
 Frc consts  --      1.8547                 1.9386                 1.8552
 IR Inten    --     78.9365                 4.4734                 8.4953

                     94                     95                     96
                      A                      A                      A
 Frequencies --   1704.8722              1729.9976              2966.7082
 Red. masses --      3.6660                 2.1935                 1.0835
 Frc consts  --      6.2781                 3.8679                 5.6187
 IR Inten    --      8.3165                27.0685                41.8727

                     97                     98                     99
                      A                      A                      A
 Frequencies --   2988.9667              2989.7971              2991.0936
 Red. masses --      1.0662                 1.0899                 1.0638
 Frc consts  --      5.6120                 5.7399                 5.6076
 IR Inten    --    335.0662              1241.7081               297.0625

                    100                    101                    102
                      A                      A                      A
 Frequencies --   3095.6365              3104.4295              3105.7061
 Red. masses --      1.0630                 1.0650                 1.0846
 Frc consts  --      6.0020                 6.0473                 6.1636
 IR Inten    --     15.7230                19.6354                18.9044

                    103                    104                    105
                      A                      A                      A
 Frequencies --   3130.5837              3146.8546              3152.2233
 Red. masses --      1.0931                 1.1049                 1.1029
 Frc consts  --      6.3117                 6.4468                 6.4567
 IR Inten    --     12.5478                 0.7410                10.8796

                    106                    107                    108
                      A                      A                      A
 Frequencies --   3165.3268              3204.9043              3210.6692
 Red. masses --      1.1052                 1.0731                 1.0924
 Frc consts  --      6.5243                 6.4938                 6.6348
 IR Inten    --     31.1300               926.8684                11.1643

                    109                    110                    111
                      A                      A                      A
 Frequencies --   3231.5176              3245.4344              3260.5986
 Red. masses --      1.0913                 1.0927                 1.1008
 Frc consts  --      6.7142                 6.7812                 6.8951
 IR Inten    --    381.8288                 1.5826                 3.0220

                    112                    113                    114
                      A                      A                      A
 Frequencies --   3390.9309              3407.8931              3542.2188
 Red. masses --      1.0667                 1.0646                 1.0620
 Frc consts  --      7.2267                 7.2849                 7.8507
 IR Inten    --    384.4342              1049.8517               551.0086

                    115                    116                    117
                      A                      A                      A
 Frequencies --   3663.8874              3706.0231              3936.2631
 Red. masses --      1.0608                 1.0651                 1.0669
 Frc consts  --      8.3899                 8.6190                 9.7392
 IR Inten    --    625.7688               326.3012                57.6081

                    118                    119                    120
                      A                      A                      A
 Frequencies --   3938.3246              3940.1183              3942.6953
 Red. masses --      1.0677                 1.0690                 1.0697
 Frc consts  --      9.7574                 9.7783                 9.7971
 IR Inten    --    150.8604               174.0293                54.7279

 - Thermochemistry -
 -------------------
 Temperature   298.150 Kelvin.  Pressure   1.00000 Atm.
 Atom     1 has atomic number  6 and mass  12.00000

 Molecular mass:   253.17635 amu.
 Principal axes and moments of inertia in atomic units:
                           1         2         3
     Eigenvalues --  3848.745895630.689147498.21835
           X            0.99995   0.00944   0.00244
           Y           -0.00948   0.99985   0.01423
           Z           -0.00230  -0.01425   0.99990
 This molecule is an asymmetric top.
 Rotational symmetry number  1.
 Warning -- assumption of classical behavior for rotation
           may cause significant error
 Rotational temperatures (Kelvin)      0.02250     0.01538     0.01155
 Rotational constants (GHZ):           0.46892     0.32052     0.24069
 Zero-point vibrational energy     972964.4 (Joules/Mol)
                                  232.54408 (Kcal/Mol)
 Warning -- explicit consideration of  37 degrees of freedom as
           vibrations may cause significant error
 Vibrational temperatures:     28.01    38.88    56.10    83.08    89.14
          (Kelvin)             96.81   100.17   111.19   131.61   141.95
                              174.62   240.98   258.18   275.34   298.72
                              304.16   331.98   363.27   370.47   390.85
                              392.09   406.11   426.67   459.24   477.92
                              490.25   517.40   564.36   576.24   598.90
                              616.60   719.03   744.89   794.45   811.67
                              833.83   881.90   918.82   937.40   953.68
                              992.54  1025.31  1103.10  1116.16  1119.68
                             1204.16  1210.13  1225.10  1298.86  1340.94
                             1346.78  1377.22  1399.97  1415.33  1448.29
                             1485.07  1507.18  1532.03  1541.82  1550.16
                             1574.89  1599.58  1643.07  1656.81  1715.38
                             1721.53  1747.10  1767.67  1786.35  1807.03
                             1826.59  1847.09  1880.86  1906.81  1919.45
                             1955.22  1976.78  1990.53  2012.07  2075.77
                             2089.78  2137.64  2138.77  2144.35  2165.94
                             2181.96  2193.65  2338.81  2360.70  2378.60
                             2387.21  2402.71  2443.37  2452.93  2489.08
                             4268.43  4300.46  4301.65  4303.52  4453.93
                             4466.58  4468.42  4504.21  4527.62  4535.35
                             4554.20  4611.14  4619.44  4649.43  4669.46
                             4691.27  4878.79  4903.20  5096.46  5271.52
                             5332.14  5663.40  5666.37  5668.95  5672.66

 Zero-point correction=                           0.370583 (Hartree/Particle)
 Thermal correction to Energy=                    0.394074
 Thermal correction to Enthalpy=                  0.395018
 Thermal correction to Gibbs Free Energy=         0.316762
 Sum of electronic and zero-point Energies=           -881.104971
 Sum of electronic and thermal Energies=              -881.081480
 Sum of electronic and thermal Enthalpies=            -881.080535
 Sum of electronic and thermal Free Energies=         -881.158791

                     E (Thermal)             CV                S
                      KCal/Mol        Cal/Mol-Kelvin    Cal/Mol-Kelvin
 Total                  247.285             85.166            164.702
 Electronic               0.000              0.000              0.000
 Translational            0.889              2.981             42.487
 Rotational               0.889              2.981             33.452
 Vibrational            245.507             79.204             88.764
 Vibration     1          0.593              1.986              6.687
 Vibration     2          0.593              1.984              6.037
 Vibration     3          0.594              1.981              5.310
 Vibration     4          0.596              1.974              4.533
 Vibration     5          0.597              1.972              4.394
 Vibration     6          0.598              1.970              4.231
 Vibration     7          0.598              1.969              4.164
 Vibration     8          0.599              1.964              3.959
 Vibration     9          0.602              1.955              3.628
 Vibration    10          0.604              1.950              3.481
 Vibration    11          0.609              1.931              3.079
 Vibration    12          0.624              1.882              2.464
 Vibration    13          0.629              1.868              2.334
 Vibration    14          0.634              1.852              2.214
 Vibration    15          0.641              1.829              2.065
 Vibration    16          0.643              1.823              2.032
 Vibration    17          0.652              1.794              1.873
 Vibration    18          0.664              1.759              1.713
 Vibration    19          0.667              1.750              1.679
 Vibration    20          0.675              1.725              1.586
 Vibration    21          0.676              1.724              1.580
 Vibration    22          0.681              1.707              1.520
 Vibration    23          0.690              1.680              1.436
 Vibration    24          0.705              1.637              1.314
 Vibration    25          0.714              1.611              1.250
 Vibration    26          0.720              1.594              1.209
 Vibration    27          0.734              1.555              1.124
 Vibration    28          0.760              1.487              0.992
 Vibration    29          0.766              1.469              0.961
 Vibration    30          0.779              1.435              0.905
 Vibration    31          0.790              1.408              0.863
 Vibration    32          0.855              1.251              0.659
 Vibration    33          0.873              1.211              0.615
 Vibration    34          0.908              1.135              0.540
 Vibration    35          0.920              1.109              0.516
 Vibration    36          0.936              1.076              0.486
 Vibration    37          0.972              1.004              0.428

                           ! Non-Optimized Parameters !
 Normal termination of Gaussian 16 at Sat Sep  5 07:13:35 2020.
