 Gaussian 16, Revision A.03,
 Gaussian 16:  ES64L-G16RevA.03 25-Dec-2016

 -----------------------------
 # wB97XD/aug-cc-pVDZ opt freq
 -----------------------------

 ----
 blah
 ----
 Symbolic Z-matrix:
 Charge =  1 Multiplicity = 1

 SCF Done:  E(RwB97XD) =  -881.466591127     A.U. after   16 cycles
 SCF Done:  E(RwB97XD) =  -881.465389202     A.U. after   15 cycles
 SCF Done:  E(RwB97XD) =  -881.467561235     A.U. after   13 cycles
 SCF Done:  E(RwB97XD) =  -881.467830796     A.U. after   14 cycles
 SCF Done:  E(RwB97XD) =  -881.468087931     A.U. after   13 cycles
 SCF Done:  E(RwB97XD) =  -881.468381546     A.U. after   13 cycles
 SCF Done:  E(RwB97XD) =  -881.468606687     A.U. after   11 cycles
 SCF Done:  E(RwB97XD) =  -881.468397691     A.U. after   12 cycles
 SCF Done:  E(RwB97XD) =  -881.468820643     A.U. after   12 cycles
 SCF Done:  E(RwB97XD) =  -881.468810829     A.U. after   13 cycles
 SCF Done:  E(RwB97XD) =  -881.469069020     A.U. after   10 cycles
 SCF Done:  E(RwB97XD) =  -881.469068881     A.U. after    9 cycles
 SCF Done:  E(RwB97XD) =  -881.469068992     A.U. after    9 cycles
 SCF Done:  E(RwB97XD) =  -881.469068971     A.U. after   10 cycles
 SCF Done:  E(RwB97XD) =  -881.469069067     A.U. after    8 cycles
 SCF Done:  E(RwB97XD) =  -881.469069030     A.U. after    8 cycles
 SCF Done:  E(RwB97XD) =  -881.469069034     A.U. after    8 cycles
 SCF Done:  E(RwB97XD) =  -881.469069016     A.U. after    8 cycles
 SCF Done:  E(RwB97XD) =  -881.469068997     A.U. after    8 cycles
 Optimization completed.
    -- Stationary point found.
 Normal termination of Gaussian 16 at Fri Dec  9 15:03:10 2022.

 ----------------------------------------------------------------------
 #N Geom=AllCheck Guess=TCheck SCRF=Check GenChk RwB97XD/Aug-CC-pVDZ Fr
 eq
 ----------------------------------------------------------------------

 Structure from the checkpoint file:  "/gscratch/scrubbed/gds001/Gau-30850.chk"
 ----
 blah
 ----
 Charge =  1 Multiplicity = 1

                         Standard orientation:
 ---------------------------------------------------------------------
 Center     Atomic      Atomic             Coordinates (Angstroms)
 Number     Number       Type             X           Y           Z
 ---------------------------------------------------------------------
      1          6           0        2.933514   -1.453344   -0.740298
      2          6           0        1.644614   -0.984616   -0.482055
      3          6           0        1.464901    0.394608   -0.434382
      4          7           0        2.500366    1.222752   -0.621257
      5          6           0        3.746966    0.790675   -0.870382
      6          6           0        3.992875   -0.566281   -0.943285
      7          6           0        0.478842   -1.920745   -0.266929
      8          7           0       -0.246049   -1.649408    0.978328
      9          6           0       -1.472077   -2.449652    0.854143
     10          6           0       -1.914563   -2.238080   -0.599522
     11          6           0       -0.620005   -1.830777   -1.343163
     12          8           0        1.823262    3.714957   -0.087020
     13          8           0        0.262479    2.887611    1.867830
     14          8           0       -1.311385    0.976042    0.890310
     15          1           0       -2.214429   -2.115822    1.589016
     16          1           0       -2.358457   -3.148934   -1.013879
     17          1           0       -2.663168   -1.441475   -0.657898
     18          1           0       -0.387687   -2.478029   -2.195583
     19          1           0       -0.695368   -0.803040   -1.718576
     20          1           0       -1.252692   -3.515768    1.050895
     21          1           0        0.881162   -2.953505   -0.244316
     22          1           0        0.500195    0.863658   -0.235746
     23          1           0        4.511332    1.553121   -0.997466
     24          1           0        4.999732   -0.924086   -1.144350
     25          1           0        3.116529   -2.527529   -0.779435
     26          6           0        0.514619   -1.941072    2.184801
     27          1           0        2.301400    2.257575   -0.527334
     28          1           0       -0.991528    0.057114    1.020952
     29          1           0       -2.271973    0.913433    0.725927
     30          1           0        1.196980    3.582209    0.665387
     31          1           0        1.476735    4.424010   -0.632557
     32          1           0        0.001095    3.290911    2.697218
     33          1           0       -0.435109    2.240670    1.616545
     34          8           0       -3.973453    0.536711    0.396340
     35          1           0       -4.607393    0.537816    1.116889
     36          1           0       -4.439385    0.931482   -0.363171
     37          1           0        1.395948   -1.290256    2.244562
     38          1           0        0.846457   -2.995641    2.218300
     39          1           0       -0.109645   -1.744990    3.064015
     40          8           0       -5.270857    1.612951   -1.808807
     41          1           0       -5.906397    1.110099   -2.325107
     42          1           0       -5.533042    2.533108   -1.896590
 ---------------------------------------------------------------------

 SCF Done:  E(RwB97XD) =  -881.469068997     A.U. after    1 cycles

 The electronic state is 1-A.
 Alpha  occ. eigenvalues --  -19.39459 -19.38310 -19.36989 -19.36676 -19.35242
 Alpha  occ. eigenvalues --  -14.66603 -14.56751 -10.50193 -10.49490 -10.47000
 Alpha  occ. eigenvalues --  -10.46358 -10.46100 -10.45395 -10.42166 -10.42124
 Alpha  occ. eigenvalues --  -10.40494 -10.39161  -1.24997  -1.23822  -1.22793
 Alpha  occ. eigenvalues --   -1.21435  -1.20833  -1.19112  -1.16319  -1.07423
 Alpha  occ. eigenvalues --   -1.03800  -0.99420  -0.94901  -0.89740  -0.88688
 Alpha  occ. eigenvalues --   -0.87791  -0.81632  -0.78547  -0.78503  -0.74303
 Alpha  occ. eigenvalues --   -0.74161  -0.73907  -0.73174  -0.72382  -0.72285
 Alpha  occ. eigenvalues --   -0.71464  -0.69991  -0.68569  -0.67754  -0.67056
 Alpha  occ. eigenvalues --   -0.64599  -0.63616  -0.62749  -0.62083  -0.61665
 Alpha  occ. eigenvalues --   -0.60685  -0.59912  -0.58288  -0.57641  -0.56718
 Alpha  occ. eigenvalues --   -0.56324  -0.55512  -0.54708  -0.54421  -0.52837
 Alpha  occ. eigenvalues --   -0.52465  -0.52247  -0.52026  -0.51143  -0.50431
 Alpha  occ. eigenvalues --   -0.50000  -0.49214  -0.48425  -0.42994
 Alpha virt. eigenvalues --   -0.13023  -0.10177  -0.05802  -0.05235  -0.04470
 Alpha virt. eigenvalues --   -0.03928  -0.03487  -0.02821  -0.02493  -0.02380
 Alpha virt. eigenvalues --   -0.02063  -0.01370  -0.01035  -0.00689  -0.00100

 Mulliken charges:
               1
     1  C    1.302280
     2  C    0.556167
     3  C    0.632513
     4  N    0.050065
     5  C    0.729632
     6  C    0.364255
     7  C    1.391519
     8  N   -1.227195
     9  C    1.240314
    10  C    1.126118
    11  C    0.970416
    12  O   -0.450615
    13  O   -0.411085
    14  O   -0.543938
    15  H   -0.566572
    16  H   -0.324388
    17  H   -0.354211
    18  H   -0.538600
    19  H   -0.324865
    20  H   -0.575544
    21  H   -0.855844
    22  H   -1.160620
    23  H   -0.627010
    24  H   -0.564299
    25  H   -0.900307
    26  C    0.929863
    27  H    0.077309
    28  H    0.505883
    29  H    0.263091
    30  H    0.251700
    31  H    0.155153
    32  H    0.162818
    33  H    0.319184
    34  O   -0.534101
    35  H    0.212114
    36  H    0.292749
    37  H   -0.178160
    38  H   -0.169286
    39  H   -0.196312
    40  O   -0.333244
    41  H    0.152662
    42  H    0.150393
 Sum of Mulliken charges =   1.00000

 Dipole moment (field-independent basis, Debye):
    X=             -0.1832    Y=              1.3408    Z=             -2.4174  Tot=              2.7704
 Quadrupole moment (field-independent basis, Debye-Ang):
   XX=            -23.6478   YY=            -70.8051   ZZ=            -88.0501
   XY=            -12.8628   XZ=              0.3004   YZ=             -4.0777

  Exact polarizability: 197.850   8.611 178.979 -10.027  -0.963 142.016
 Approx polarizability: 199.717   2.157 195.885  -8.792  -0.004 156.664

                      1                      2                      3
                      A                      A                      A
 Frequencies --     10.7492                13.6936                27.8098
 Red. masses --      4.8378                 4.8962                 5.0643
 Frc consts  --      0.0003                 0.0005                 0.0023
 IR Inten    --      0.8909                 1.5061                 0.2352

                      4                      5                      6
                      A                      A                      A
 Frequencies --     34.0800                45.1272                56.7898
 Red. masses --      5.3405                 4.2492                 4.1696
 Frc consts  --      0.0037                 0.0051                 0.0079
 IR Inten    --      0.8431                 1.1060                 0.3274

                      7                      8                      9
                      A                      A                      A
 Frequencies --     59.7441                70.3519                78.3949
 Red. masses --      4.6804                 4.8152                 4.5273
 Frc consts  --      0.0098                 0.0140                 0.0164
 IR Inten    --      3.0864                 0.1604                 1.5038

                     10                     11                     12
                      A                      A                      A
 Frequencies --    100.4105               103.3480               105.1306
 Red. masses --      1.3725                 1.9196                 3.5122
 Frc consts  --      0.0082                 0.0121                 0.0229
 IR Inten    --     12.8664                12.1502                 8.8721

                     13                     14                     15
                      A                      A                      A
 Frequencies --    122.0752               142.8532               157.7965
 Red. masses --      3.7363                 5.0566                 1.9135
 Frc consts  --      0.0328                 0.0608                 0.0281
 IR Inten    --      6.0280                 8.9670                 1.0675

                     16                     17                     18
                      A                      A                      A
 Frequencies --    191.7666               206.7941               207.2279
 Red. masses --      4.3792                 2.6089                 1.1664
 Frc consts  --      0.0949                 0.0657                 0.0295
 IR Inten    --      5.9592                19.1012               196.2774

                     19                     20                     21
                      A                      A                      A
 Frequencies --    209.9188               236.5532               241.6636
 Red. masses --      1.2721                 3.5118                 1.2665
 Frc consts  --      0.0330                 0.1158                 0.0436
 IR Inten    --    114.9324                31.8824                16.3628

                     22                     23                     24
                      A                      A                      A
 Frequencies --    246.0232               255.5226               259.1666
 Red. masses --      1.2876                 1.6543                 1.5946
 Frc consts  --      0.0459                 0.0636                 0.0631
 IR Inten    --      6.4681                14.7897                99.9375

                     25                     26                     27
                      A                      A                      A
 Frequencies --    267.1260               272.5725               294.0571
 Red. masses --      2.3331                 1.3464                 5.0960
 Frc consts  --      0.0981                 0.0589                 0.2596
 IR Inten    --      2.3949                88.2625                19.5100

                     28                     29                     30
                      A                      A                      A
 Frequencies --    314.8756               344.9632               395.0902
 Red. masses --      4.0662                 5.4545                 2.9535
 Frc consts  --      0.2375                 0.3824                 0.2716
 IR Inten    --      6.0167                13.3842                 9.6160

                     31                     32                     33
                      A                      A                      A
 Frequencies --    402.7591               410.9789               419.4140
 Red. masses --      1.0574                 3.0359                 2.9221
 Frc consts  --      0.1011                 0.3021                 0.3028
 IR Inten    --     18.8474                 5.8250                 4.1587

                     34                     35                     36
                      A                      A                      A
 Frequencies --    502.1021               528.2185               557.8010
 Red. masses --      1.0676                 1.3023                 2.6200
 Frc consts  --      0.1586                 0.2141                 0.4803
 IR Inten    --     31.4300                36.9180                21.3293

                     37                     38                     39
                      A                      A                      A
 Frequencies --    583.9486               635.9028               644.0170
 Red. masses --      2.9284                 3.3741                 2.7810
 Frc consts  --      0.5883                 0.8039                 0.6796
 IR Inten    --      6.4274                14.8778                 7.6425

                     40                     41                     42
                      A                      A                      A
 Frequencies --    661.0695               673.4071               714.0951
 Red. masses --      1.2742                 5.1733                 1.6979
 Frc consts  --      0.3281                 1.3822                 0.5101
 IR Inten    --     13.0156                 5.2558                 9.0512

                     43                     44                     45
                      A                      A                      A
 Frequencies --    728.6514               783.6268               814.5032
 Red. masses --      1.1718                 1.4681                 1.0576
 Frc consts  --      0.3665                 0.5312                 0.4134
 IR Inten    --    118.0842                 9.0837               104.6852

                     46                     47                     48
                      A                      A                      A
 Frequencies --    822.1807               837.7047               844.0334
 Red. masses --      1.1135                 1.5593                 2.1085
 Frc consts  --      0.4435                 0.6447                 0.8850
 IR Inten    --    117.6044                47.5521                 6.4527

                     49                     50                     51
                      A                      A                      A
 Frequencies --    869.5677               920.4110               935.5580
 Red. masses --      1.0530                 1.0586                 2.0752
 Frc consts  --      0.4691                 0.5284                 1.0702
 IR Inten    --    108.5005                97.0480                 6.3659

                     52                     53                     54
                      A                      A                      A
 Frequencies --    939.1119               955.2921               981.3103
 Red. masses --      2.3327                 2.3959                 1.4401
 Frc consts  --      1.2121                 1.2882                 0.8171
 IR Inten    --     16.6482                10.5894                 0.7841

                     55                     56                     57
                      A                      A                      A
 Frequencies --    994.1317              1017.1027              1037.8270
 Red. masses --      1.5819                 1.6331                 1.3545
 Frc consts  --      0.9211                 0.9954                 0.8596
 IR Inten    --      4.3073                13.2693                 3.1886

                     58                     59                     60
                      A                      A                      A
 Frequencies --   1045.9567              1056.9086              1077.4191
 Red. masses --      4.4223                 2.3420                 1.8371
 Frc consts  --      2.8506                 1.5414                 1.2564
 IR Inten    --      3.1289                 1.9485                16.7982

                     61                     62                     63
                      A                      A                      A
 Frequencies --   1093.6681              1118.0392              1141.9572
 Red. masses --      2.1584                 2.2668                 1.2859
 Frc consts  --      1.5211                 1.6695                 0.9880
 IR Inten    --      4.2327                 9.1672                 3.5282

                     64                     65                     66
                      A                      A                      A
 Frequencies --   1149.4568              1201.1234              1214.1363
 Red. masses --      1.5188                 1.7849                 1.3173
 Frc consts  --      1.1824                 1.5172                 1.1441
 IR Inten    --      7.5009                16.1507                 8.8089

                     67                     68                     69
                      A                      A                      A
 Frequencies --   1227.3122              1229.4815              1245.6489
 Red. masses --      1.4375                 1.1032                 1.7594
 Frc consts  --      1.2757                 0.9825                 1.6084
 IR Inten    --      5.8276                29.2944                 8.8912

                     70                     71                     72
                      A                      A                      A
 Frequencies --   1259.9857              1264.4765              1293.0658
 Red. masses --      1.7793                 1.8046                 1.4653
 Frc consts  --      1.6643                 1.7000                 1.4435
 IR Inten    --     11.3240                14.5213                 1.7609

                     73                     74                     75
                      A                      A                      A
 Frequencies --   1299.8088              1330.5391              1333.3748
 Red. masses --      1.4693                 1.6374                 1.6993
 Frc consts  --      1.4626                 1.7079                 1.7800
 IR Inten    --     11.0640                12.7409                 6.5722

                     76                     77                     78
                      A                      A                      A
 Frequencies --   1357.4299              1380.2796              1382.9787
 Red. masses --      1.3749                 1.7712                 1.5421
 Frc consts  --      1.4927                 1.9881                 1.7378
 IR Inten    --      5.0323                14.5509                 4.4262

                     79                     80                     81
                      A                      A                      A
 Frequencies --   1400.5828              1440.9050              1452.3253
 Red. masses --      1.8294                 1.5204                 1.2576
 Frc consts  --      2.1143                 1.8599                 1.5628
 IR Inten    --      2.5958                21.9530                 9.7254

                     82                     83                     84
                      A                      A                      A
 Frequencies --   1481.3148              1486.4816              1490.5580
 Red. masses --      1.0459                 1.0615                 1.0860
 Frc consts  --      1.3522                 1.3819                 1.4216
 IR Inten    --     13.5672                 8.5407                 1.9613

                     85                     86                     87
                      A                      A                      A
 Frequencies --   1507.5319              1518.4461              1526.5542
 Red. masses --      1.0865                 1.6779                 1.3003
 Frc consts  --      1.4549                 2.2794                 1.7854
 IR Inten    --     12.3076                36.3821                 6.8241

                     88                     89                     90
                      A                      A                      A
 Frequencies --   1614.3791              1628.8739              1635.4116
 Red. masses --      1.1841                 1.0859                 1.8731
 Frc consts  --      1.8183                 1.6975                 2.9517
 IR Inten    --    103.4867               123.7910                 4.4616

                     91                     92                     93
                      A                      A                      A
 Frequencies --   1657.5234              1667.9194              1701.7601
 Red. masses --      1.0852                 1.1243                 2.0678
 Frc consts  --      1.7566                 1.8428                 3.5282
 IR Inten    --     10.8050                29.7148                23.6478

                     94                     95                     96
                      A                      A                      A
 Frequencies --   1711.4056              1721.1655              2860.2632
 Red. masses --      1.4848                 2.3699                 1.1044
 Frc consts  --      2.5623                 4.1364                 5.3234
 IR Inten    --     16.7231                26.4527              1945.6817

                     97                     98                     99
                      A                      A                      A
 Frequencies --   2958.8019              2987.0832              2990.6641
 Red. masses --      1.0832                 1.0536                 1.0693
 Frc consts  --      5.5869                 5.5388                 5.6349
 IR Inten    --     42.4841                29.8885                98.7424

                    100                    101                    102
                      A                      A                      A
 Frequencies --   3087.4968              3104.4583              3106.8834
 Red. masses --      1.0625                 1.0843                 1.0648
 Frc consts  --      5.9675                 6.1572                 6.0558
 IR Inten    --     16.8811                19.5348                15.6079

                    103                    104                    105
                      A                      A                      A
 Frequencies --   3117.5380              3142.1186              3149.4614
 Red. masses --      1.0913                 1.1052                 1.1036
 Frc consts  --      6.2492                 6.4290                 6.4493
 IR Inten    --     17.6851                 6.5888                13.5391

                    106                    107                    108
                      A                      A                      A
 Frequencies --   3165.0914              3194.5789              3212.6580
 Red. masses --      1.1069                 1.0990                 1.0924
 Frc consts  --      6.5331                 6.6084                 6.6430
 IR Inten    --     15.2865                80.8774                 0.4820

                    109                    110                    111
                      A                      A                      A
 Frequencies --   3244.6163              3259.3341              3361.2394
 Red. masses --      1.0927                 1.1008                 1.0646
 Frc consts  --      6.7775                 6.8901                 7.0869
 IR Inten    --      1.3668                 2.2447              1343.7108

                    112                    113                    114
                      A                      A                      A
 Frequencies --   3436.8944              3493.5066              3586.7271
 Red. masses --      1.0622                 1.0671                 1.0681
 Frc consts  --      7.3922                 7.6733                 8.0959
 IR Inten    --    941.5823               523.5238              1162.6149

                    115                    116                    117
                      A                      A                      A
 Frequencies --   3655.9164              3877.7574              3947.9722
 Red. masses --      1.0610                 1.0452                 1.0695
 Frc consts  --      8.3550                 9.2600                 9.8212
 IR Inten    --    330.8761                26.0071                89.2235

                    118                    119                    120
                      A                      A                      A
 Frequencies --   3951.5655              3959.8674              3983.9328
 Red. masses --      1.0675                 1.0680                 1.0828
 Frc consts  --      9.8206                 9.8668                10.1261
 IR Inten    --    112.7892               109.8878               106.0016

 - Thermochemistry -
 -------------------
 Temperature   298.150 Kelvin.  Pressure   1.00000 Atm.
 Atom     1 has atomic number  6 and mass  12.00000

 Molecular mass:   253.17635 amu.
 Principal axes and moments of inertia in atomic units:
                           1         2         3
     Eigenvalues --  4442.760897124.742049246.13246
           X            0.99996  -0.00541   0.00659
           Y            0.00546   0.99996  -0.00755
           Z           -0.00655   0.00758   0.99995
 This molecule is an asymmetric top.
 Rotational symmetry number  1.
 Warning -- assumption of classical behavior for rotation
           may cause significant error
 Rotational temperatures (Kelvin)      0.01950     0.01216     0.00937
 Rotational constants (GHZ):           0.40622     0.25331     0.19519
 Zero-point vibrational energy     965799.2 (Joules/Mol)
                                  230.83154 (Kcal/Mol)
 Warning -- explicit consideration of  37 degrees of freedom as
           vibrations may cause significant error
 Vibrational temperatures:     15.47    19.70    40.01    49.03    64.93
          (Kelvin)             81.71    85.96   101.22   112.79   144.47
                              148.69   151.26   175.64   205.53   227.03
                              275.91   297.53   298.15   302.03   340.35
                              347.70   353.97   367.64   372.88   384.33
                              392.17   423.08   453.04   496.33   568.45
                              579.48   591.31   603.44   722.41   759.99
                              802.55   840.17   914.92   926.60   951.13
                              968.88  1027.42  1048.37  1127.46  1171.89
                             1182.93  1205.27  1214.38  1251.11  1324.27
                             1346.06  1351.17  1374.45  1411.89  1430.33
                             1463.38  1493.20  1504.90  1520.66  1550.17
                             1573.54  1608.61  1643.02  1653.81  1728.15
                             1746.87  1765.83  1768.95  1792.21  1812.84
                             1819.30  1860.43  1870.13  1914.35  1918.43
                             1953.04  1985.91  1989.80  2015.13  2073.14
                             2089.57  2131.28  2138.72  2144.58  2169.00
                             2184.71  2196.37  2322.73  2343.59  2352.99
                             2384.81  2399.76  2448.45  2462.33  2476.37
                             4115.28  4257.06  4297.75  4302.90  4442.22
                             4466.62  4470.11  4485.44  4520.81  4531.37
                             4553.86  4596.29  4622.30  4668.28  4689.45
                             4836.07  4944.92  5026.38  5160.50  5260.05
                             5579.23  5680.25  5685.42  5697.37  5731.99

 Zero-point correction=                           0.367853 (Hartree/Particle)
 Thermal correction to Energy=                    0.393173
 Thermal correction to Enthalpy=                  0.394117
 Thermal correction to Gibbs Free Energy=         0.308885
 Sum of electronic and zero-point Energies=           -881.101216
 Sum of electronic and thermal Energies=              -881.075896
 Sum of electronic and thermal Enthalpies=            -881.074952
 Sum of electronic and thermal Free Energies=         -881.160184

                     E (Thermal)             CV                S
                      KCal/Mol        Cal/Mol-Kelvin    Cal/Mol-Kelvin
 Total                  246.720             87.749            179.385
 Electronic               0.000              0.000              0.000
 Translational            0.889              2.981             42.487
 Rotational               0.889              2.981             34.036
 Vibrational            244.942             81.788            102.861
 Vibration     1          0.593              1.987              7.867
 Vibration     2          0.593              1.986              7.387
 Vibration     3          0.593              1.984              5.980
 Vibration     4          0.594              1.983              5.577
 Vibration     5          0.595              1.979              5.020
 Vibration     6          0.596              1.975              4.566
 Vibration     7          0.597              1.973              4.466
 Vibration     8          0.598              1.968              4.143
 Vibration     9          0.600              1.964              3.931
 Vibration    10          0.604              1.949              3.446
 Vibration    11          0.605              1.947              3.390
 Vibration    12          0.605              1.945              3.357
 Vibration    13          0.610              1.931              3.067
 Vibration    14          0.616              1.910              2.765
 Vibration    15          0.621              1.894              2.576
 Vibration    16          0.634              1.851              2.211
 Vibration    17          0.641              1.830              2.072
 Vibration    18          0.641              1.830              2.068
 Vibration    19          0.642              1.826              2.044
 Vibration    20          0.655              1.785              1.829
 Vibration    21          0.658              1.777              1.791
 Vibration    22          0.660              1.769              1.759
 Vibration    23          0.666              1.753              1.692
 Vibration    24          0.668              1.747              1.667
 Vibration    25          0.672              1.733              1.615
 Vibration    26          0.676              1.724              1.580
 Vibration    27          0.689              1.685              1.451
 Vibration    28          0.702              1.645              1.337
 Vibration    29          0.723              1.586              1.189
 Vibration    30          0.762              1.481              0.981
 Vibration    31          0.768              1.464              0.953
 Vibration    32          0.775              1.446              0.923
 Vibration    33          0.782              1.428              0.894
 Vibration    34          0.857              1.245              0.653
 Vibration    35          0.883              1.188              0.591
 Vibration    36          0.913              1.123              0.528
 Vibration    37          0.941              1.066              0.478

                           ! Non-Optimized Parameters !
 Normal termination of Gaussian 16 at Fri Dec  9 16:28:02 2022.
