 Gaussian 16, Revision A.03,
 Gaussian 16:  ES64L-G16RevA.03 25-Dec-2016

 ---------------------------------------------
 # wB97XD/aug-cc-pVDZ opt freq temperature=130
 ---------------------------------------------

 --------
 Nicotine
 --------
 Symbolic Z-matrix:
 Charge =  1 Multiplicity = 1

 SCF Done:  E(RwB97XD) =  -881.476696241     A.U. after   15 cycles
 SCF Done:  E(RwB97XD) =  -881.478252206     A.U. after   12 cycles
 SCF Done:  E(RwB97XD) =  -881.478366596     A.U. after   12 cycles
 SCF Done:  E(RwB97XD) =  -881.478487218     A.U. after   12 cycles
 SCF Done:  E(RwB97XD) =  -881.478593691     A.U. after   12 cycles
 SCF Done:  E(RwB97XD) =  -881.478709835     A.U. after   14 cycles
 SCF Done:  E(RwB97XD) =  -881.478840371     A.U. after   11 cycles
 SCF Done:  E(RwB97XD) =  -881.478946588     A.U. after   12 cycles
 SCF Done:  E(RwB97XD) =  -881.478979380     A.U. after   12 cycles
 SCF Done:  E(RwB97XD) =  -881.478985172     A.U. after   14 cycles
 SCF Done:  E(RwB97XD) =  -881.479071466     A.U. after    9 cycles
 SCF Done:  E(RwB97XD) =  -881.479072237     A.U. after   10 cycles
 SCF Done:  E(RwB97XD) =  -881.479072530     A.U. after    9 cycles
 SCF Done:  E(RwB97XD) =  -881.479072785     A.U. after    8 cycles
 SCF Done:  E(RwB97XD) =  -881.479073026     A.U. after    8 cycles
 SCF Done:  E(RwB97XD) =  -881.479073182     A.U. after    8 cycles
 SCF Done:  E(RwB97XD) =  -881.479073273     A.U. after    8 cycles
 SCF Done:  E(RwB97XD) =  -881.479073325     A.U. after    8 cycles
 SCF Done:  E(RwB97XD) =  -881.479073326     A.U. after    8 cycles
 Optimization completed.
    -- Stationary point found.
 Normal termination of Gaussian 16 at Fri Jul 16 00:33:30 2021.

 ----------------------------------------------------------------------
 #N Geom=AllCheck Guess=TCheck SCRF=Check GenChk RwB97XD/Aug-CC-pVDZ Fr
 eq
 ----------------------------------------------------------------------

 Structure from the checkpoint file:  "NicPyrNa5h25.chk"
 --------
 Nicotine
 --------
 Charge =  1 Multiplicity = 1

                         Standard orientation:
 ---------------------------------------------------------------------
 Center     Atomic      Atomic             Coordinates (Angstroms)
 Number     Number       Type             X           Y           Z
 ---------------------------------------------------------------------
      1          6           0       -1.468434    2.405051   -1.065108
      2          6           0       -1.255452    1.289389   -0.255438
      3          6           0       -0.109089    1.278119    0.539344
      4          7           0        0.791278    2.262115    0.548572
      5          6           0        0.574808    3.326829   -0.230118
      6          6           0       -0.545030    3.445664   -1.047869
      7          6           0       -2.218095    0.130839   -0.246741
      8          7           0       -1.613304   -1.129849   -0.802132
      9          6           0       -2.617427   -2.188984   -0.493092
     10          6           0       -3.157043   -1.813603    0.896747
     11          6           0       -2.742000   -0.338571    1.114824
     12          8           0        0.513288   -2.049842    0.441816
     13          8           0        2.542202   -0.681713   -0.621012
     14          8           0        2.823411    0.892795    1.750228
     15          8           0        1.048152   -0.912862    2.886764
     16          1           0       -3.394300   -2.145961   -1.266236
     17          1           0       -4.243150   -1.942677    0.929349
     18          1           0       -2.724400   -2.457237    1.668650
     19          1           0       -1.948338   -0.264362    1.867123
     20          1           0       -3.569211    0.296140    1.445629
     21          1           0       -2.119961   -3.162174   -0.536738
     22          1           0       -3.063171    0.364321   -0.910693
     23          1           0        0.102185    0.437652    1.200093
     24          1           0        1.327878    4.114334   -0.197196
     25          1           0       -0.684266    4.333592   -1.661251
     26          1           0       -2.351371    2.465281   -1.703060
     27          6           0       -1.204181   -1.060957   -2.217804
     28          1           0       -0.740057   -1.390172   -0.236249
     29          1           0        1.315576   -1.675876    0.004096
     30          1           0        0.661582   -1.855565    1.386978
     31          1           0        2.223426    1.601013    1.409898
     32          1           0        3.585296    1.329450    2.137840
     33          1           0        1.784285   -0.306003    2.677785
     34          1           0        1.244539   -1.298157    3.743523
     35          1           0        2.876159   -0.148103    0.117474
     36          1           0        3.320780   -1.071993   -1.053039
     37          8           0        4.753596   -1.837617   -1.873057
     38          1           0        5.184652   -2.659402   -1.625623
     39          1           0        5.273135   -1.473335   -2.593889
     40          1           0       -0.814752   -2.038875   -2.516048
     41          1           0       -0.416361   -0.309012   -2.323231
     42          1           0       -2.069500   -0.797477   -2.836640
 ---------------------------------------------------------------------

 SCF Done:  E(RwB97XD) =  -881.479073326     A.U. after    1 cycles

 The electronic state is 1-A.
 Alpha  occ. eigenvalues --  -19.38926 -19.38489 -19.37894 -19.36506 -19.35764
 Alpha  occ. eigenvalues --  -14.66626 -14.58071 -10.48550 -10.46880 -10.46555
 Alpha  occ. eigenvalues --  -10.45824 -10.45770 -10.44490 -10.44422 -10.42927
 Alpha  occ. eigenvalues --  -10.42814 -10.42576  -1.23981  -1.23293  -1.23097
 Alpha  occ. eigenvalues --   -1.21948  -1.21006  -1.19381  -1.17719  -1.05509
 Alpha  occ. eigenvalues --   -1.03298  -1.00563  -0.95890  -0.92905  -0.87747
 Alpha  occ. eigenvalues --   -0.85209  -0.84020  -0.82076  -0.76959  -0.74624
 Alpha  occ. eigenvalues --   -0.73730  -0.73590  -0.72948  -0.72573  -0.71792
 Alpha  occ. eigenvalues --   -0.71297  -0.70979  -0.68416  -0.68239  -0.65637
 Alpha  occ. eigenvalues --   -0.64164  -0.63840  -0.62577  -0.62009  -0.61536
 Alpha  occ. eigenvalues --   -0.61094  -0.60778  -0.60046  -0.59860  -0.58950
 Alpha  occ. eigenvalues --   -0.57840  -0.57112  -0.56593  -0.55754  -0.55015
 Alpha  occ. eigenvalues --   -0.54005  -0.52156  -0.51819  -0.51028  -0.50189
 Alpha  occ. eigenvalues --   -0.49476  -0.49107  -0.47588  -0.46081
 Alpha virt. eigenvalues --   -0.09049  -0.07961  -0.05936  -0.05308  -0.04514
 Alpha virt. eigenvalues --   -0.04290  -0.03615  -0.03149  -0.02867  -0.02236
 Alpha virt. eigenvalues --   -0.01959  -0.01264  -0.01100  -0.00782  -0.00649

 Mulliken charges:
               1
     1  C    1.208087
     2  C    0.877720
     3  C    1.150077
     4  N   -0.455686
     5  C    0.229797
     6  C    0.588488
     7  C    1.092302
     8  N   -1.140458
     9  C    1.268574
    10  C    0.779563
    11  C    1.060713
    12  O   -0.501592
    13  O   -0.379290
    14  O   -0.691890
    15  O   -0.384911
    16  H   -0.501851
    17  H   -0.235951
    18  H   -0.246661
    19  H   -0.310247
    20  H   -0.520197
    21  H   -0.492090
    22  H   -0.952729
    23  H   -1.304560
    24  H   -0.617162
    25  H   -0.624638
    26  H   -0.911819
    27  C    1.032993
    28  H    0.251293
    29  H    0.324145
    30  H    0.232878
    31  H    0.348180
    32  H    0.282892
    33  H    0.221295
    34  H    0.194294
    35  H    0.170992
    36  H    0.262270
    37  O   -0.299544
    38  H    0.139690
    39  H    0.140897
    40  H   -0.106335
    41  H   -0.047538
    42  H   -0.131992
 Sum of Mulliken charges =   1.00000

 Dipole moment (field-independent basis, Debye):
    X=              0.1251    Y=             -0.7226    Z=             -2.1480  Tot=              2.2697
 Quadrupole moment (field-independent basis, Debye-Ang):
   XX=            -41.1915   YY=            -76.1253   ZZ=            -78.1706
   XY=             -0.7643   XZ=              2.1418   YZ=              0.2117

  Exact polarizability: 174.102  15.330 181.469   8.861 -11.361 153.113
 Approx polarizability: 185.372  11.833 190.033  13.675 -14.187 172.564

                      1                      2                      3
                      A                      A                      A
 Frequencies --     13.5478                20.7231                34.3665
 Red. masses --      5.7415                 4.9429                 4.6643
 Frc consts  --      0.0006                 0.0013                 0.0032
 IR Inten    --      2.6230                 0.5582                 3.4459

                      4                      5                      6
                      A                      A                      A
 Frequencies --     39.6301                54.3648                55.5548
 Red. masses --      4.0597                 2.3649                 4.7354
 Frc consts  --      0.0038                 0.0041                 0.0086
 IR Inten    --      1.7177                 1.7243                 0.9690

                      7                      8                      9
                      A                      A                      A
 Frequencies --     59.7100                71.4260                83.2543
 Red. masses --      3.9060                 4.5396                 4.7626
 Frc consts  --      0.0082                 0.0136                 0.0194
 IR Inten    --      1.7119                 4.9667                 3.8372

                     10                     11                     12
                      A                      A                      A
 Frequencies --     97.3696               106.9074               108.9455
 Red. masses --      5.6091                 1.0379                 3.5110
 Frc consts  --      0.0313                 0.0070                 0.0246
 IR Inten    --      2.5397                 1.0622                28.8978

                     13                     14                     15
                      A                      A                      A
 Frequencies --    115.0914               140.2566               163.8039
 Red. masses --      1.1528                 2.3757                 5.2281
 Frc consts  --      0.0090                 0.0275                 0.0826
 IR Inten    --    196.7629                 2.3759                 7.7076

                     16                     17                     18
                      A                      A                      A
 Frequencies --    192.2545               199.4737               215.2646
 Red. masses --      4.1102                 4.7787                 3.6953
 Frc consts  --      0.0895                 0.1120                 0.1009
 IR Inten    --      9.6613                33.8553                20.1944

                     19                     20                     21
                      A                      A                      A
 Frequencies --    226.1375               229.5561               232.2309
 Red. masses --      2.5767                 1.4789                 1.2725
 Frc consts  --      0.0776                 0.0459                 0.0404
 IR Inten    --      5.5261                29.5844                 7.5172

                     22                     23                     24
                      A                      A                      A
 Frequencies --    234.0790               241.9929               257.7243
 Red. masses --      1.8527                 1.7286                 2.8377
 Frc consts  --      0.0598                 0.0596                 0.1111
 IR Inten    --     25.1406                26.3123                 1.4574

                     25                     26                     27
                      A                      A                      A
 Frequencies --    274.9903               319.6987               333.5574
 Red. masses --      5.1780                 4.1129                 4.3109
 Frc consts  --      0.2307                 0.2477                 0.2826
 IR Inten    --     16.7235                 3.3587                 4.6744

                     28                     29                     30
                      A                      A                      A
 Frequencies --    352.8443               389.7391               413.5561
 Red. masses --      1.1417                 2.9492                 3.0745
 Frc consts  --      0.0837                 0.2639                 0.3098
 IR Inten    --     24.3469                 0.3657                 2.7227

                     31                     32                     33
                      A                      A                      A
 Frequencies --    444.9132               468.3548               527.1296
 Red. masses --      3.1747                 1.0666                 1.2205
 Frc consts  --      0.3703                 0.1378                 0.1998
 IR Inten    --     16.9081                79.3515               115.5872

                     34                     35                     36
                      A                      A                      A
 Frequencies --    541.5478               560.4654               568.4648
 Red. masses --      2.6310                 1.6179                 1.4997
 Frc consts  --      0.4546                 0.2994                 0.2855
 IR Inten    --     11.7569                16.3024                 6.2690

                     37                     38                     39
                      A                      A                      A
 Frequencies --    617.8881               636.7832               653.2267
 Red. masses --      1.1199                 3.3808                 5.6499
 Frc consts  --      0.2519                 0.8077                 1.4204
 IR Inten    --     66.2304                10.1727                14.8264

                     40                     41                     42
                      A                      A                      A
 Frequencies --    681.0663               698.2432               711.2313
 Red. masses --      5.2328                 1.0575                 1.0750
 Frc consts  --      1.4301                 0.3038                 0.3204
 IR Inten    --      0.7972                56.5353               178.8945

                     43                     44                     45
                      A                      A                      A
 Frequencies --    730.4088               757.1736               773.3103
 Red. masses --      1.8263                 1.0477                 1.0766
 Frc consts  --      0.5741                 0.3539                 0.3793
 IR Inten    --     54.6403                21.9575                31.5815

                     46                     47                     48
                      A                      A                      A
 Frequencies --    792.4727               820.4139               836.0231
 Red. masses --      1.2543                 2.1090                 1.7649
 Frc consts  --      0.4641                 0.8364                 0.7268
 IR Inten    --      4.1771                14.6431                27.7165

                     49                     50                     51
                      A                      A                      A
 Frequencies --    886.8562               917.0650               921.5559
 Red. masses --      1.0748                 1.1033                 2.9272
 Frc consts  --      0.4981                 0.5467                 1.4647
 IR Inten    --     64.6316               197.2876                 7.5765

                     52                     53                     54
                      A                      A                      A
 Frequencies --    934.8833               950.8217               970.1892
 Red. masses --      2.4884                 1.8776                 1.4119
 Frc consts  --      1.2814                 1.0001                 0.7830
 IR Inten    --      5.2139                 6.4474                 5.6749

                     55                     56                     57
                      A                      A                      A
 Frequencies --    987.0273              1000.8685              1026.4605
 Red. masses --      1.5245                 1.8677                 1.4298
 Frc consts  --      0.8751                 1.1023                 0.8876
 IR Inten    --      1.8653                 7.2981                 0.3849

                     58                     59                     60
                      A                      A                      A
 Frequencies --   1044.7525              1055.5322              1062.5905
 Red. masses --      1.8911                 5.0145                 2.6746
 Frc consts  --      1.2161                 3.2917                 1.7793
 IR Inten    --     14.5114                 9.8743                 7.6877

                     61                     62                     63
                      A                      A                      A
 Frequencies --   1092.0939              1110.3958              1137.5477
 Red. masses --      2.2096                 2.3412                 1.2952
 Frc consts  --      1.5527                 1.7008                 0.9875
 IR Inten    --      3.5618                 4.2953                 7.5891

                     64                     65                     66
                      A                      A                      A
 Frequencies --   1154.9058              1165.6601              1219.5334
 Red. masses --      1.4062                 2.9000                 1.7684
 Frc consts  --      1.1051                 2.3216                 1.5496
 IR Inten    --      6.2503                16.0190                 1.8805

                     67                     68                     69
                      A                      A                      A
 Frequencies --   1225.0063              1236.7668              1248.0367
 Red. masses --      1.4626                 1.6715                 1.3175
 Frc consts  --      1.2932                 1.5063                 1.2091
 IR Inten    --      7.4509                 4.4130                12.6343

                     70                     71                     72
                      A                      A                      A
 Frequencies --   1270.3420              1287.6677              1302.9770
 Red. masses --      1.5076                 1.2400                 1.6008
 Frc consts  --      1.4335                 1.2114                 1.6013
 IR Inten    --      2.6508                 4.6333                 1.4556

                     73                     74                     75
                      A                      A                      A
 Frequencies --   1317.6706              1336.0582              1368.2035
 Red. masses --      3.1266                 1.3986                 1.2526
 Frc consts  --      3.1985                 1.4709                 1.3815
 IR Inten    --      2.4265                 1.3839                 4.0356

                     76                     77                     78
                      A                      A                      A
 Frequencies --   1381.0413              1384.7555              1412.2828
 Red. masses --      1.4694                 1.4040                 1.5596
 Frc consts  --      1.6512                 1.5862                 1.8327
 IR Inten    --      2.1497                 4.0283                 1.4825

                     79                     80                     81
                      A                      A                      A
 Frequencies --   1453.6221              1482.5839              1483.5666
 Red. masses --      1.1848                 1.4991                 1.3522
 Frc consts  --      1.4750                 1.9414                 1.7536
 IR Inten    --      2.8536                27.1407                 8.9866

                     82                     83                     84
                      A                      A                      A
 Frequencies --   1487.3384              1490.1065              1500.7724
 Red. masses --      1.0525                 1.0751                 1.0976
 Frc consts  --      1.3717                 1.4065                 1.4565
 IR Inten    --      2.6408                 1.8912                20.4697

                     85                     86                     87
                      A                      A                      A
 Frequencies --   1518.2835              1537.6485              1547.3839
 Red. masses --      1.1443                 1.8345                 1.2588
 Frc consts  --      1.5542                 2.5555                 1.7758
 IR Inten    --     19.9217                26.7286                46.1740

                     88                     89                     90
                      A                      A                      A
 Frequencies --   1631.2599              1644.7424              1656.3831
 Red. masses --      1.0867                 1.1201                 1.3872
 Frc consts  --      1.7038                 1.7852                 2.2424
 IR Inten    --     80.5899                36.3155                29.5783

                     91                     92                     93
                      A                      A                      A
 Frequencies --   1662.6602              1666.4510              1675.8746
 Red. masses --      1.4911                 1.1140                 1.5507
 Frc consts  --      2.4286                 1.8227                 2.5660
 IR Inten    --     24.5383               113.3634                51.9888

                     94                     95                     96
                      A                      A                      A
 Frequencies --   1690.1524              1732.6172              2631.4639
 Red. masses --      4.6822                 1.0658                 1.1021
 Frc consts  --      7.8805                 1.8851                 4.4965
 IR Inten    --     45.1771                40.5771              1506.4905

                     97                     98                     99
                      A                      A                      A
 Frequencies --   3070.8558              3075.8754              3096.9613
 Red. masses --      1.0835                 1.0357                 1.0635
 Frc consts  --      6.0199                 5.7735                 6.0098
 IR Inten    --      3.2181                 3.3075                 7.7547

                    100                    101                    102
                      A                      A                      A
 Frequencies --   3101.5778              3115.5419              3157.5171
 Red. masses --      1.0641                 1.0632                 1.1055
 Frc consts  --      6.0309                 6.0806                 6.4936
 IR Inten    --      7.7496                10.4863                 1.1446

                    103                    104                    105
                      A                      A                      A
 Frequencies --   3169.2398              3177.9225              3179.8259
 Red. masses --      1.1055                 1.1068                 1.1068
 Frc consts  --      6.5418                 6.5860                 6.5934
 IR Inten    --      3.5733                 0.2722                 8.0242

                    106                    107                    108
                      A                      A                      A
 Frequencies --   3188.5791              3199.8013              3211.6522
 Red. masses --      1.1067                 1.0916                 1.0914
 Frc consts  --      6.6291                 6.5851                 6.6325
 IR Inten    --      1.0755                 4.0043                 5.2950

                    109                    110                    111
                      A                      A                      A
 Frequencies --   3215.0307              3240.3182              3344.2748
 Red. masses --      1.0932                 1.0983                 1.0664
 Frc consts  --      6.6578                 6.7943                 7.0270
 IR Inten    --     12.1346                 3.5633              1048.4701

                    112                    113                    114
                      A                      A                      A
 Frequencies --   3391.9302              3591.8866              3642.8431
 Red. masses --      1.0664                 1.0607                 1.0640
 Frc consts  --      7.2285                 8.0631                 8.3190
 IR Inten    --    870.6756               401.1918               541.0692

                    115                    116                    117
                      A                      A                      A
 Frequencies --   3683.7813              3758.7353              3883.5810
 Red. masses --      1.0493                 1.0818                 1.0452
 Frc consts  --      8.3896                 9.0052                 9.2875
 IR Inten    --    364.1081               683.2614                20.8157

                    118                    119                    120
                      A                      A                      A
 Frequencies --   3940.9287              3947.7635              3991.4223
 Red. masses --      1.0672                 1.0696                 1.0831
 Frc consts  --      9.7653                 9.8212                10.1663
 IR Inten    --    116.7448               118.3243               104.5046

 - Thermochemistry -
 -------------------
 Temperature   130.000 Kelvin.  Pressure   1.00000 Atm.
 Atom     1 has atomic number  6 and mass  12.00000

 Molecular mass:   253.17635 amu.
 Principal axes and moments of inertia in atomic units:
                           1         2         3
     Eigenvalues --  4630.532866144.908147493.33818
           X            0.99991   0.01304   0.00110
           Y           -0.01305   0.99991   0.00264
           Z           -0.00107  -0.00266   1.00000
 This molecule is an asymmetric top.
 Rotational symmetry number  1.
 Warning -- assumption of classical behavior for rotation
           may cause significant error
 Rotational temperatures (Kelvin)      0.01870     0.01410     0.01156
 Rotational constants (GHZ):           0.38975     0.29370     0.24085
 Zero-point vibrational energy     971233.0 (Joules/Mol)
                                  232.13025 (Kcal/Mol)
 Warning -- explicit consideration of  24 degrees of freedom as
           vibrations may cause significant error
 Vibrational temperatures:     19.49    29.82    49.45    57.02    78.22
          (Kelvin)             79.93    85.91   102.77   119.78   140.09
                              153.82   156.75   165.59   201.80   235.68
                              276.61   287.00   309.72   325.36   330.28
                              334.13   336.79   348.17   370.81   395.65
                              459.98   479.91   507.66   560.75   595.02
                              640.13   673.86   758.42   779.17   806.38
                              817.89   889.00   916.19   939.85   979.90
                             1004.62  1023.30  1050.90  1089.40  1112.62
                             1140.19  1180.39  1202.85  1275.99  1319.45
                             1325.91  1345.09  1368.02  1395.89  1420.11
                             1440.03  1476.85  1503.17  1518.68  1528.83
                             1571.28  1597.61  1636.68  1661.65  1677.12
                             1754.64  1762.51  1779.43  1795.65  1827.74
                             1852.67  1874.69  1895.83  1922.29  1968.54
                             1987.01  1992.35  2031.96  2091.44  2133.11
                             2134.52  2139.95  2143.93  2159.28  2184.47
                             2212.33  2226.34  2347.02  2366.42  2383.17
                             2392.20  2397.65  2411.21  2431.75  2492.85
                             3786.09  4418.28  4425.50  4455.84  4462.48
                             4482.57  4542.96  4559.83  4572.32  4575.06
                             4587.65  4603.80  4620.85  4625.71  4662.10
                             4811.67  4880.23  5167.92  5241.24  5300.14
                             5407.98  5587.61  5670.12  5679.95  5742.77

 Zero-point correction=                           0.369923 (Hartree/Particle)
 Thermal correction to Energy=                    0.376288
 Thermal correction to Enthalpy=                  0.376699
 Thermal correction to Gibbs Free Energy=         0.352206
 Sum of electronic and zero-point Energies=           -881.109150
 Sum of electronic and thermal Energies=              -881.102786
 Sum of electronic and thermal Enthalpies=            -881.102374
 Sum of electronic and thermal Free Energies=         -881.126867

                     E (Thermal)             CV                S
                      KCal/Mol        Cal/Mol-Kelvin    Cal/Mol-Kelvin
 Total                  236.124             50.515            118.229
 Electronic               0.000              0.000              0.000
 Translational            0.388              2.981             38.363
 Rotational               0.388              2.981             31.247
 Vibrational            235.349             44.553             48.618
 Vibration     1          0.259              1.983              5.760
 Vibration     2          0.259              1.979              4.918
 Vibration     3          0.261              1.963              3.920
 Vibration     4          0.262              1.956              3.641
 Vibration     5          0.266              1.928              3.026
 Vibration     6          0.266              1.926              2.985
 Vibration     7          0.268              1.916              2.846
 Vibration     8          0.272              1.887              2.505
 Vibration     9          0.276              1.852              2.219
 Vibration    10          0.283              1.806              1.932
 Vibration    11          0.288              1.771              1.765
 Vibration    12          0.289              1.763              1.732
 Vibration    13          0.292              1.739              1.635
 Vibration    14          0.308              1.632              1.302
 Vibration    15          0.325              1.522              1.057
 Vibration    16          0.349              1.381              0.824
 Vibration    17          0.356              1.344              0.773
 Vibration    18          0.370              1.264              0.674
 Vibration    19          0.381              1.209              0.613
 Vibration    20          0.384              1.191              0.595
 Vibration    21          0.387              1.178              0.581
 Vibration    22          0.389              1.169              0.572
 Vibration    23          0.397              1.129              0.534
 Vibration    24          0.414              1.051              0.465

                           ! Non-Optimized Parameters !
 Normal termination of Gaussian 16 at Fri Jul 16 02:05:48 2021.
