 Gaussian 16, Revision A.03,
 Gaussian 16:  ES64L-G16RevA.03 25-Dec-2016

 -----------------------------
 # wB97XD/aug-cc-pVDZ opt freq
 -----------------------------

 ----
 blah
 ----
 Symbolic Z-matrix:
 Charge =  1 Multiplicity = 1

 SCF Done:  E(RwB97XD) =  -881.474615393     A.U. after   15 cycles
 SCF Done:  E(RwB97XD) =  -881.474810975     A.U. after   13 cycles
 SCF Done:  E(RwB97XD) =  -881.473513071     A.U. after   12 cycles
 SCF Done:  E(RwB97XD) =  -881.475813058     A.U. after   12 cycles
 SCF Done:  E(RwB97XD) =  -881.474959724     A.U. after   13 cycles
 SCF Done:  E(RwB97XD) =  -881.475959589     A.U. after   13 cycles
 SCF Done:  E(RwB97XD) =  -881.475978626     A.U. after   12 cycles
 SCF Done:  E(RwB97XD) =  -881.476034833     A.U. after   12 cycles
 SCF Done:  E(RwB97XD) =  -881.476053906     A.U. after   10 cycles
 SCF Done:  E(RwB97XD) =  -881.476068325     A.U. after   12 cycles
 SCF Done:  E(RwB97XD) =  -881.476133679     A.U. after    9 cycles
 SCF Done:  E(RwB97XD) =  -881.476133924     A.U. after    8 cycles
 SCF Done:  E(RwB97XD) =  -881.476134225     A.U. after    8 cycles
 SCF Done:  E(RwB97XD) =  -881.476134427     A.U. after    8 cycles
 SCF Done:  E(RwB97XD) =  -881.476134586     A.U. after    8 cycles
 SCF Done:  E(RwB97XD) =  -881.476134690     A.U. after    8 cycles
 SCF Done:  E(RwB97XD) =  -881.476134797     A.U. after    8 cycles
 SCF Done:  E(RwB97XD) =  -881.476134816     A.U. after    7 cycles
 SCF Done:  E(RwB97XD) =  -881.476134851     A.U. after    7 cycles
 Optimization completed.
    -- Stationary point found.
 Normal termination of Gaussian 16 at Tue Dec  6 17:09:36 2022.

 ----------------------------------------------------------------------
 #N Geom=AllCheck Guess=TCheck SCRF=Check GenChk RwB97XD/Aug-CC-pVDZ Fr
 eq
 ----------------------------------------------------------------------

 Structure from the checkpoint file:  "/gscratch/scrubbed/gds001/Gau-31056.chk"
 ----
 blah
 ----
 Charge =  1 Multiplicity = 1

                         Standard orientation:
 ---------------------------------------------------------------------
 Center     Atomic      Atomic             Coordinates (Angstroms)
 Number     Number       Type             X           Y           Z
 ---------------------------------------------------------------------
      1          7           0        1.488850   -1.376565    0.730709
      2          6           0        2.210608   -0.425930   -0.216547
      3          6           0        2.117060   -1.117601   -1.575016
      4          6           0        2.248148   -2.596748   -1.211725
      5          6           0        1.390172   -2.723636    0.045160
      6          6           0        1.668752    0.975498   -0.109372
      7          6           0        0.368337    1.276298   -0.525033
      8          7           0       -0.165915    2.494462   -0.430935
      9          6           0        0.585453    3.482253    0.068468
     10          6           0        1.895718    3.291923    0.495136
     11          6           0        2.440827    2.013992    0.409574
     12          8           0       -0.969169   -0.705854    1.662595
     13          8           0       -3.014933   -0.353962   -0.026135
     14          8           0       -2.904603    2.204968   -0.818007
     15          1           0        1.720557   -3.500135    0.740504
     16          1           0        3.294793   -2.853378   -0.999993
     17          1           0        1.889718   -3.262428   -2.002686
     18          1           0        1.142614   -0.922373   -2.035187
     19          1           0        2.905704   -0.759389   -2.244241
     20          1           0        0.336551   -2.868915   -0.208525
     21          1           0        3.257919   -0.430308    0.113376
     22          1           0       -0.274439    0.500028   -0.946120
     23          1           0        0.115869    4.464487    0.127774
     24          1           0        2.472360    4.126934    0.888079
     25          1           0        3.464768    1.830679    0.739075
     26          6           0        2.121477   -1.429545    2.067968
     27          1           0        0.517469   -1.030935    0.909308
     28          1           0       -1.089186   -0.145121    2.431960
     29          1           0       -1.772936   -0.573418    1.105308
     30          1           0       -1.959497    2.469722   -0.757173
     31          1           0       -3.242549    2.569938   -1.638543
     32          1           0       -3.088563    0.575195   -0.344178
     33          1           0       -3.910723   -0.651167    0.216238
     34          1           0       -1.943163   -1.272260   -1.102665
     35          8           0       -1.148408   -1.628968   -1.547225
     36          1           0       -1.459566   -1.980839   -2.384000
     37          1           0        3.119845   -1.870163    1.978517
     38          1           0        1.497581   -2.038371    2.728466
     39          1           0        2.193283   -0.410995    2.464234
     40          8           0       -5.527766   -1.231807    0.719357
     41          1           0       -6.098754   -1.802889    0.199151
     42          1           0       -6.110481   -0.743235    1.306544
 ---------------------------------------------------------------------

 SCF Done:  E(RwB97XD) =  -881.476134851     A.U. after    1 cycles

 The electronic state is 1-A.
 Alpha  occ. eigenvalues --  -19.39351 -19.38421 -19.36757 -19.36598 -19.36272
 Alpha  occ. eigenvalues --  -14.67249 -14.57723 -10.48442 -10.47186 -10.46112
 Alpha  occ. eigenvalues --  -10.45607 -10.45506 -10.44341 -10.44237 -10.42744
 Alpha  occ. eigenvalues --  -10.42323 -10.42168  -1.23902  -1.23684  -1.22622
 Alpha  occ. eigenvalues --   -1.21491  -1.20699  -1.19715  -1.17382  -1.05505
 Alpha  occ. eigenvalues --   -1.03347  -1.00324  -0.95724  -0.93495  -0.86845
 Alpha  occ. eigenvalues --   -0.84989  -0.83211  -0.82265  -0.77071  -0.74399
 Alpha  occ. eigenvalues --   -0.74099  -0.73923  -0.73230  -0.72756  -0.71726
 Alpha  occ. eigenvalues --   -0.71059  -0.69972  -0.69613  -0.66923  -0.64882
 Alpha  occ. eigenvalues --   -0.64689  -0.64338  -0.62985  -0.62016  -0.61842
 Alpha  occ. eigenvalues --   -0.61187  -0.61028  -0.59247  -0.59059  -0.58264
 Alpha  occ. eigenvalues --   -0.57581  -0.57178  -0.56198  -0.55404  -0.55389
 Alpha  occ. eigenvalues --   -0.53813  -0.52251  -0.51955  -0.50829  -0.49960
 Alpha  occ. eigenvalues --   -0.49714  -0.49120  -0.47028  -0.45802
 Alpha virt. eigenvalues --   -0.08820  -0.07825  -0.06082  -0.05324  -0.04645
 Alpha virt. eigenvalues --   -0.04224  -0.03914  -0.02935  -0.02903  -0.02515
 Alpha virt. eigenvalues --   -0.02061  -0.01618  -0.01146  -0.00772  -0.00552

 Mulliken charges:
               1
     1  N   -0.342114
     2  C    0.873937
     3  C    0.957361
     4  C    0.793628
     5  C    1.335173
     6  C    0.933659
     7  C    0.879745
     8  N   -0.497368
     9  C    0.228561
    10  C    0.507052
    11  C    1.317803
    12  O   -0.555018
    13  O   -0.774360
    14  O   -0.359892
    15  H   -0.437536
    16  H   -0.329234
    17  H   -0.286442
    18  H   -0.313713
    19  H   -0.463779
    20  H   -0.482453
    21  H   -0.866283
    22  H   -1.227376
    23  H   -0.614495
    24  H   -0.600374
    25  H   -0.933064
    26  C    1.058985
    27  H    0.007842
    28  H    0.247431
    29  H    0.329112
    30  H    0.248263
    31  H    0.138923
    32  H    0.442193
    33  H    0.260215
    34  H    0.265329
    35  O   -0.550509
    36  H    0.254344
    37  H   -0.163068
    38  H   -0.212666
    39  H   -0.024641
    40  O   -0.325517
    41  H    0.135408
    42  H    0.144940
 Sum of Mulliken charges =   1.00000

 Dipole moment (field-independent basis, Debye):
    X=              0.4193    Y=             -1.8837    Z=              1.4324  Tot=              2.4033
 Quadrupole moment (field-independent basis, Debye-Ang):
   XX=            -34.9697   YY=            -74.5854   ZZ=            -86.1324
   XY=              2.5598   XZ=              5.7779   YZ=              2.0264

  Exact polarizability: 177.122  -4.688 192.254   8.243   7.443 141.449
 Approx polarizability: 190.125  -3.434 197.036  11.836   9.376 161.079

                      1                      2                      3
                      A                      A                      A
 Frequencies --     23.0089                32.4599                44.0953
 Red. masses --      4.3852                 4.3441                 4.0692
 Frc consts  --      0.0014                 0.0027                 0.0047
 IR Inten    --      0.5168                 1.3858                 0.1591

                      4                      5                      6
                      A                      A                      A
 Frequencies --     47.4908                55.1035                57.2038
 Red. masses --      4.0073                 4.9282                 3.5268
 Frc consts  --      0.0053                 0.0088                 0.0068
 IR Inten    --      0.5977                 0.3134                 0.2600

                      7                      8                      9
                      A                      A                      A
 Frequencies --     63.3552                77.2152                79.9574
 Red. masses --      4.3118                 1.1406                 3.8191
 Frc consts  --      0.0102                 0.0040                 0.0144
 IR Inten    --      5.9467                13.1142                 4.5547

                     10                     11                     12
                      A                      A                      A
 Frequencies --     93.2108                96.8543               118.9960
 Red. masses --      5.1684                 4.2970                 4.1863
 Frc consts  --      0.0265                 0.0237                 0.0349
 IR Inten    --      6.9553                 2.6918                 1.1383

                     13                     14                     15
                      A                      A                      A
 Frequencies --    125.6800               147.7780               164.0812
 Red. masses --      3.3574                 3.0344                 1.6997
 Frc consts  --      0.0312                 0.0390                 0.0270
 IR Inten    --      3.1922                 0.1924                71.2658

                     16                     17                     18
                      A                      A                      A
 Frequencies --    169.3365               179.9425               193.4872
 Red. masses --      2.3499                 5.2042                 1.8376
 Frc consts  --      0.0397                 0.0993                 0.0405
 IR Inten    --     60.0442                21.9251                96.7585

                     19                     20                     21
                      A                      A                      A
 Frequencies --    203.6125               227.7296               250.5848
 Red. masses --      2.3385                 1.1130                 1.3289
 Frc consts  --      0.0571                 0.0340                 0.0492
 IR Inten    --     46.8315               128.3122                68.4618

                     22                     23                     24
                      A                      A                      A
 Frequencies --    256.2106               265.1076               266.2563
 Red. masses --      2.1977                 2.0216                 2.6951
 Frc consts  --      0.0850                 0.0837                 0.1126
 IR Inten    --     19.2394                 9.4223                 1.5267

                     25                     26                     27
                      A                      A                      A
 Frequencies --    268.4794               285.6771               295.7565
 Red. masses --      1.5898                 3.7183                 1.1259
 Frc consts  --      0.0675                 0.1788                 0.0580
 IR Inten    --     11.0392               110.6640                 0.8261

                     28                     29                     30
                      A                      A                      A
 Frequencies --    329.6186               346.7283               384.1963
 Red. masses --      4.2130                 5.1927                 3.0012
 Frc consts  --      0.2697                 0.3678                 0.2610
 IR Inten    --      1.3461                 7.0835                 2.1068

                     31                     32                     33
                      A                      A                      A
 Frequencies --    416.4721               431.3465               453.5616
 Red. masses --      2.6837                 2.3421                 1.1048
 Frc consts  --      0.2743                 0.2567                 0.1339
 IR Inten    --      9.2511                 0.4732                68.2466

                     34                     35                     36
                      A                      A                      A
 Frequencies --    490.6490               551.7219               554.8990
 Red. masses --      1.1678                 2.5089                 2.3924
 Frc consts  --      0.1656                 0.4500                 0.4340
 IR Inten    --     58.7325                 3.1669                11.4986

                     37                     38                     39
                      A                      A                      A
 Frequencies --    561.0127               615.0142               622.0372
 Red. masses --      1.2088                 2.5629                 1.0371
 Frc consts  --      0.2241                 0.5711                 0.2364
 IR Inten    --     33.0626                 2.5662                 2.3947

                     40                     41                     42
                      A                      A                      A
 Frequencies --    649.4930               676.4300               680.2805
 Red. masses --      6.7984                 5.4689                 1.0466
 Frc consts  --      1.6897                 1.4743                 0.2854
 IR Inten    --     16.1402                 1.4832                 6.9967

                     43                     44                     45
                      A                      A                      A
 Frequencies --    740.3893               803.2510               814.2029
 Red. masses --      2.0146                 1.8410                 1.1302
 Frc consts  --      0.6507                 0.6999                 0.4414
 IR Inten    --     37.9519                 9.9712               143.6957

                     46                     47                     48
                      A                      A                      A
 Frequencies --    836.7596               854.5047               859.4366
 Red. masses --      1.6755                 1.9702                 1.1839
 Frc consts  --      0.6912                 0.8476                 0.5152
 IR Inten    --     24.0076                14.2793                69.1692

                     49                     50                     51
                      A                      A                      A
 Frequencies --    877.4578               888.6882               924.6852
 Red. masses --      1.4739                 1.5049                 1.8083
 Frc consts  --      0.6686                 0.7003                 0.9110
 IR Inten    --     87.1231                69.8300                 8.2521

                     52                     53                     54
                      A                      A                      A
 Frequencies --    943.4699               969.8239               972.7523
 Red. masses --      2.2112                 1.9214                 1.1130
 Frc consts  --      1.1597                 1.0648                 0.6205
 IR Inten    --      5.8747                14.9248                65.3928

                     55                     56                     57
                      A                      A                      A
 Frequencies --    986.7441              1006.7103              1034.4798
 Red. masses --      1.3328                 1.4228                 1.6447
 Frc consts  --      0.7646                 0.8496                 1.0370
 IR Inten    --      3.0260                 1.0623                 6.7409

                     58                     59                     60
                      A                      A                      A
 Frequencies --   1041.1274              1052.4911              1053.0860
 Red. masses --      1.7459                 2.7505                 3.1344
 Frc consts  --      1.1150                 1.7951                 2.0480
 IR Inten    --     14.0718                13.9631                 2.5799

                     61                     62                     63
                      A                      A                      A
 Frequencies --   1091.1599              1103.7840              1120.3402
 Red. masses --      2.1725                 1.9657                 1.8096
 Frc consts  --      1.5240                 1.4110                 1.3382
 IR Inten    --      1.3610                14.1819                 2.6181

                     64                     65                     66
                      A                      A                      A
 Frequencies --   1144.2103              1153.8812              1206.1278
 Red. masses --      1.7077                 1.4252                 1.3682
 Frc consts  --      1.3172                 1.1180                 1.1727
 IR Inten    --      6.8538                 8.4658                 4.6738

                     67                     68                     69
                      A                      A                      A
 Frequencies --   1214.0215              1228.1071              1238.4931
 Red. masses --      1.8389                 1.5595                 1.6107
 Frc consts  --      1.5968                 1.3858                 1.4557
 IR Inten    --      0.3926                 3.1857                 6.5406

                     70                     71                     72
                      A                      A                      A
 Frequencies --   1272.1046              1304.0357              1312.3707
 Red. masses --      1.6708                 3.1564                 1.2391
 Frc consts  --      1.5930                 3.1625                 1.2574
 IR Inten    --      6.2180                 1.3933                 1.7821

                     73                     74                     75
                      A                      A                      A
 Frequencies --   1318.5368              1355.5121              1370.1966
 Red. masses --      1.6162                 1.4117                 1.4656
 Frc consts  --      1.6555                 1.5283                 1.6212
 IR Inten    --      0.9642                 0.4360                 3.8321

                     76                     77                     78
                      A                      A                      A
 Frequencies --   1379.7935              1400.2936              1403.7458
 Red. masses --      1.2903                 1.3205                 1.3681
 Frc consts  --      1.4473                 1.5255                 1.5883
 IR Inten    --      3.6818                 1.0481                 1.3479

                     79                     80                     81
                      A                      A                      A
 Frequencies --   1450.7597              1474.9622              1481.9314
 Red. masses --      1.1829                 1.1288                 2.0947
 Frc consts  --      1.4669                 1.4469                 2.7104
 IR Inten    --      5.1515                11.0387                28.2236

                     82                     83                     84
                      A                      A                      A
 Frequencies --   1483.4862              1487.5753              1489.7862
 Red. masses --      1.0931                 1.0789                 1.0824
 Frc consts  --      1.4173                 1.4067                 1.4154
 IR Inten    --      1.5884                 5.4233                10.4484

                     85                     86                     87
                      A                      A                      A
 Frequencies --   1499.4999              1506.1348              1535.8143
 Red. masses --      1.1541                 1.1375                 2.2510
 Frc consts  --      1.5290                 1.5203                 3.1282
 IR Inten    --     46.6401                29.1771                 3.1282

                     88                     89                     90
                      A                      A                      A
 Frequencies --   1556.1968              1632.0376              1647.4262
 Red. masses --      1.1268                 1.0848                 1.1065
 Frc consts  --      1.6078                 1.7024                 1.7694
 IR Inten    --     37.0174               127.7894                19.6340

                     91                     92                     93
                      A                      A                      A
 Frequencies --   1656.6290              1663.3511              1670.5144
 Red. masses --      1.0761                 3.5124                 1.2014
 Frc consts  --      1.7400                 5.7257                 1.9753
 IR Inten    --     44.9424                42.4167                37.7206

                     94                     95                     96
                      A                      A                      A
 Frequencies --   1685.5874              1711.9222              3070.3000
 Red. masses --      5.4457                 1.0654                 1.0520
 Frc consts  --      9.1160                 1.8397                 5.8427
 IR Inten    --     28.9107                 7.3755               366.8683

                     97                     98                     99
                      A                      A                      A
 Frequencies --   3082.4093              3083.7957              3096.5842
 Red. masses --      1.0677                 1.0706                 1.0784
 Frc consts  --      5.9771                 5.9985                 6.0924
 IR Inten    --      8.8055               316.5928               221.4446

                    100                    101                    102
                      A                      A                      A
 Frequencies --   3107.6539              3118.6714              3159.6087
 Red. masses --      1.0619                 1.0611                 1.1005
 Frc consts  --      6.0421                 6.0804                 6.4731
 IR Inten    --     12.5283                11.4452                 5.1569

                    103                    104                    105
                      A                      A                      A
 Frequencies --   3172.3345              3179.3127              3183.7917
 Red. masses --      1.1066                 1.1073                 1.0947
 Frc consts  --      6.5616                 6.5943                 6.5381
 IR Inten    --      4.2083                 1.5692                 5.5824

                    106                    107                    108
                      A                      A                      A
 Frequencies --   3190.3601              3192.1015              3197.4243
 Red. masses --      1.1095                 1.1087                 1.0915
 Frc consts  --      6.6537                 6.6559                 6.5744
 IR Inten    --      4.8407                 2.0405                 4.1718

                    109                    110                    111
                      A                      A                      A
 Frequencies --   3209.4456              3237.8575              3351.9045
 Red. masses --      1.0922                 1.0983                 1.0642
 Frc consts  --      6.6284                 6.7842                 7.0449
 IR Inten    --      5.4532                 2.6297               505.1604

                    112                    113                    114
                      A                      A                      A
 Frequencies --   3416.5676              3474.7538              3573.9670
 Red. masses --      1.0663                 1.0623                 1.0664
 Frc consts  --      7.3336                 7.5568                 8.0255
 IR Inten    --   1395.9439              1009.0155              1069.1855

                    115                    116                    117
                      A                      A                      A
 Frequencies --   3650.7771              3879.0786              3943.4555
 Red. masses --      1.0662                 1.0452                 1.0668
 Frc consts  --      8.3725                 9.2667                 9.7742
 IR Inten    --    491.2422                24.4949               114.9089

                    118                    119                    120
                      A                      A                      A
 Frequencies --   3945.4801              3947.5796              3985.1259
 Red. masses --      1.0684                 1.0676                 1.0829
 Frc consts  --      9.7992                 9.8023                10.1325
 IR Inten    --     34.4789               119.3738               108.1073

 - Thermochemistry -
 -------------------
 Temperature   298.150 Kelvin.  Pressure   1.00000 Atm.
 Atom     1 has atomic number  7 and mass  14.00307

 Molecular mass:   253.17635 amu.
 Principal axes and moments of inertia in atomic units:
                           1         2         3
     Eigenvalues --  4366.918566119.854338528.27274
           X            0.99975  -0.02184   0.00475
           Y            0.02182   0.99976   0.00311
           Z           -0.00482  -0.00300   0.99998
 This molecule is an asymmetric top.
 Rotational symmetry number  1.
 Warning -- assumption of classical behavior for rotation
           may cause significant error
 Rotational temperatures (Kelvin)      0.01983     0.01415     0.01016
 Rotational constants (GHZ):           0.41328     0.29490     0.21162
 Zero-point vibrational energy     970248.4 (Joules/Mol)
                                  231.89493 (Kcal/Mol)
 Warning -- explicit consideration of  38 degrees of freedom as
           vibrations may cause significant error
 Vibrational temperatures:     33.10    46.70    63.44    68.33    79.28
          (Kelvin)             82.30    91.15   111.10   115.04   134.11
                              139.35   171.21   180.83   212.62   236.08
                              243.64   258.90   278.38   292.95   327.65
                              360.54   368.63   381.43   383.08   386.28
                              411.03   425.53   474.25   498.86   552.77
                              599.21   620.61   652.57   705.93   793.80
                              798.38   807.17   884.87   894.97   934.48
                              973.23   978.77  1065.26  1155.70  1171.46
                             1203.91  1229.44  1236.54  1262.47  1278.62
                             1330.42  1357.44  1395.36  1399.57  1419.70
                             1448.43  1488.39  1497.95  1514.30  1515.16
                             1569.94  1588.10  1611.92  1646.26  1660.18
                             1735.35  1746.71  1766.97  1781.92  1830.27
                             1876.22  1888.21  1897.08  1950.28  1971.41
                             1985.22  2014.71  2019.68  2087.32  2122.14
                             2132.17  2134.41  2140.29  2143.47  2157.45
                             2166.99  2209.69  2239.02  2348.14  2370.28
                             2383.52  2393.19  2403.50  2425.18  2463.07
                             4417.48  4434.90  4436.89  4455.29  4471.22
                             4487.07  4545.97  4564.28  4574.32  4580.77
                             4590.22  4592.72  4600.38  4617.68  4658.55
                             4822.64  4915.68  4999.40  5142.14  5252.65
                             5581.13  5673.75  5676.67  5679.69  5733.71

 Zero-point correction=                           0.369548 (Hartree/Particle)
 Thermal correction to Energy=                    0.394683
 Thermal correction to Enthalpy=                  0.395627
 Thermal correction to Gibbs Free Energy=         0.313110
 Sum of electronic and zero-point Energies=           -881.106587
 Sum of electronic and thermal Energies=              -881.081452
 Sum of electronic and thermal Enthalpies=            -881.080508
 Sum of electronic and thermal Free Energies=         -881.163025

                     E (Thermal)             CV                S
                      KCal/Mol        Cal/Mol-Kelvin    Cal/Mol-Kelvin
 Total                  247.667             87.706            173.672
 Electronic               0.000              0.000              0.000
 Translational            0.889              2.981             42.487
 Rotational               0.889              2.981             33.788
 Vibrational            245.890             81.745             97.397
 Vibration     1          0.593              1.985              6.356
 Vibration     2          0.594              1.983              5.673
 Vibration     3          0.595              1.980              5.066
 Vibration     4          0.595              1.979              4.919
 Vibration     5          0.596              1.976              4.625
 Vibration     6          0.596              1.975              4.551
 Vibration     7          0.597              1.972              4.350
 Vibration     8          0.599              1.964              3.960
 Vibration     9          0.600              1.963              3.892
 Vibration    10          0.602              1.954              3.592
 Vibration    11          0.603              1.951              3.517
 Vibration    12          0.609              1.933              3.117
 Vibration    13          0.611              1.927              3.011
 Vibration    14          0.617              1.905              2.701
 Vibration    15          0.623              1.887              2.502
 Vibration    16          0.625              1.880              2.443
 Vibration    17          0.629              1.867              2.329
 Vibration    18          0.635              1.849              2.194
 Vibration    19          0.639              1.835              2.100
 Vibration    20          0.651              1.799              1.897
 Vibration    21          0.663              1.762              1.726
 Vibration    22          0.666              1.752              1.687
 Vibration    23          0.671              1.737              1.628
 Vibration    24          0.672              1.735              1.620
 Vibration    25          0.673              1.731              1.606
 Vibration    26          0.683              1.700              1.499
 Vibration    27          0.690              1.682              1.441
 Vibration    28          0.712              1.616              1.262
 Vibration    29          0.725              1.582              1.181
 Vibration    30          0.753              1.504              1.023
 Vibration    31          0.780              1.434              0.904
 Vibration    32          0.792              1.402              0.854
 Vibration    33          0.812              1.353              0.785
 Vibration    34          0.846              1.271              0.682
 Vibration    35          0.907              1.136              0.541
 Vibration    36          0.910              1.129              0.534
 Vibration    37          0.917              1.116              0.522
 Vibration    38          0.975              1.000              0.425

                           ! Non-Optimized Parameters !
 Normal termination of Gaussian 16 at Tue Dec  6 18:39:06 2022.
