 Gaussian 16, Revision A.03,
 Gaussian 16:  ES64L-G16RevA.03 25-Dec-2016

 -----------------------------
 # wB97XD/aug-cc-pVDZ opt freq
 -----------------------------

 ----
 blah
 ----
 Symbolic Z-matrix:
 Charge =  1 Multiplicity = 1

 SCF Done:  E(RwB97XD) =  -881.446759147     A.U. after   15 cycles
 SCF Done:  E(RwB97XD) =  -880.497449384     A.U. after   19 cycles
 SCF Done:  E(RwB97XD) =  -881.420939597     A.U. after   14 cycles
 SCF Done:  E(RwB97XD) =  -881.449539825     A.U. after   11 cycles
 SCF Done:  E(RwB97XD) =  -881.451898873     A.U. after   12 cycles
 SCF Done:  E(RwB97XD) =  -881.455985440     A.U. after   13 cycles
 SCF Done:  E(RwB97XD) =  -881.459863618     A.U. after   15 cycles
 SCF Done:  E(RwB97XD) =  -881.462231150     A.U. after   16 cycles
 SCF Done:  E(RwB97XD) =  -881.464669404     A.U. after   15 cycles
 SCF Done:  E(RwB97XD) =  -881.466677622     A.U. after   13 cycles
 SCF Done:  E(RwB97XD) =  -881.475941418     A.U. after    8 cycles
 SCF Done:  E(RwB97XD) =  -881.475941864     A.U. after    8 cycles
 SCF Done:  E(RwB97XD) =  -881.475942752     A.U. after   10 cycles
 SCF Done:  E(RwB97XD) =  -881.475942828     A.U. after   10 cycles
 SCF Done:  E(RwB97XD) =  -881.475943170     A.U. after    9 cycles
 SCF Done:  E(RwB97XD) =  -881.475943419     A.U. after    8 cycles
 SCF Done:  E(RwB97XD) =  -881.475943592     A.U. after    8 cycles
 SCF Done:  E(RwB97XD) =  -881.475943667     A.U. after    8 cycles
 SCF Done:  E(RwB97XD) =  -881.475943716     A.U. after    8 cycles
 Optimization completed.
    -- Stationary point found.
 Normal termination of Gaussian 16 at Mon Dec 12 21:55:31 2022.

 ----------------------------------------------------------------------
 #N Geom=AllCheck Guess=TCheck SCRF=Check GenChk RwB97XD/Aug-CC-pVDZ Fr
 eq
 ----------------------------------------------------------------------

 Structure from the checkpoint file:  "/gscratch/scrubbed/gds001/Gau-7845.chk"
 ----
 blah
 ----
 Charge =  1 Multiplicity = 1

                         Standard orientation:
 ---------------------------------------------------------------------
 Center     Atomic      Atomic             Coordinates (Angstroms)
 Number     Number       Type             X           Y           Z
 ---------------------------------------------------------------------
      1          6           0        2.687649   -0.126704   -1.635031
      2          6           0        2.123812    0.804560   -0.528607
      3          7           0        2.291901    0.053207    0.728265
      4          6           0        3.425979   -0.853438    0.520210
      5          6           0        3.173690   -1.380145   -0.885509
      6          6           0        0.673369    1.203492   -0.694243
      7          6           0        0.230591    2.515913   -0.530350
      8          6           0       -1.126703    2.832935   -0.617741
      9          6           0       -2.031895    1.822789   -0.868543
     10          7           0       -1.581470    0.569351   -1.047057
     11          6           0       -0.287106    0.237830   -0.965091
     12          8           0       -3.058963   -1.744599   -1.120458
     13          8           0       -4.056146   -0.045629    0.817359
     14          8           0        0.103472   -1.549967    1.553259
     15          8           0       -0.868893   -2.997403   -0.404909
     16          1           0        3.428913   -1.631417    1.292855
     17          1           0        4.065547   -1.822125   -1.340516
     18          1           0        2.388681   -2.147284   -0.857937
     19          1           0        3.522728    0.375021   -2.135962
     20          1           0        1.947324   -0.358047   -2.408938
     21          1           0        4.387679   -0.308702    0.572067
     22          1           0        2.721500    1.733087   -0.492665
     23          1           0       -0.058065   -0.816169   -1.109778
     24          1           0       -3.107931    1.962162   -0.918746
     25          1           0       -1.479665    3.851674   -0.478779
     26          1           0        0.955735    3.303146   -0.321896
     27          6           0        2.408466    0.904620    1.903595
     28          1           0       -2.253942   -0.205460   -1.209797
     29          1           0        0.880461   -1.028786    1.251871
     30          1           0       -0.532817   -0.884528    1.874201
     31          1           0       -2.322366   -2.359399   -0.858206
     32          1           0       -3.533981   -2.163066   -1.842730
     33          1           0       -4.904516   -0.144972    1.256360
     34          1           0       -3.939753   -0.832583    0.257897
     35          1           0       -0.497258   -2.552952    0.403992
     36          1           0       -0.749378   -3.942333   -0.286913
     37          8           0       -1.679465    0.512563    2.139305
     38          1           0       -2.574260    0.320443    1.798524
     39          1           0       -1.796709    0.755878    3.060805
     40          1           0        2.520898    0.278903    2.796539
     41          1           0        1.495248    1.502390    2.023497
     42          1           0        3.275751    1.586377    1.837223
 ---------------------------------------------------------------------

 SCF Done:  E(RwB97XD) =  -881.475943716     A.U. after    2 cycles

 The electronic state is 1-A.
 Alpha  occ. eigenvalues --  -19.41042 -19.39898 -19.38477 -19.38319 -19.35872
 Alpha  occ. eigenvalues --  -14.67833 -14.57160 -10.50705 -10.50600 -10.47463
 Alpha  occ. eigenvalues --  -10.46733 -10.46466 -10.45981 -10.42645 -10.42541
 Alpha  occ. eigenvalues --  -10.41204 -10.40149  -1.26322  -1.25202  -1.24172
 Alpha  occ. eigenvalues --   -1.22830  -1.22332  -1.19900  -1.16662  -1.08002
 Alpha  occ. eigenvalues --   -1.04494  -1.00199  -0.95686  -0.90548  -0.89493
 Alpha  occ. eigenvalues --   -0.88243  -0.82495  -0.79533  -0.78867  -0.76582
 Alpha  occ. eigenvalues --   -0.75537  -0.74471  -0.74192  -0.73804  -0.73067
 Alpha  occ. eigenvalues --   -0.72074  -0.69959  -0.69049  -0.68792  -0.67976
 Alpha  occ. eigenvalues --   -0.65158  -0.64521  -0.64200  -0.63541  -0.62205
 Alpha  occ. eigenvalues --   -0.61385  -0.60490  -0.59622  -0.59113  -0.58466
 Alpha  occ. eigenvalues --   -0.56425  -0.56211  -0.55658  -0.55248  -0.54660
 Alpha  occ. eigenvalues --   -0.53366  -0.53191  -0.53108  -0.52462  -0.51865
 Alpha  occ. eigenvalues --   -0.51598  -0.50227  -0.48547  -0.43200
 Alpha virt. eigenvalues --   -0.13617  -0.10587  -0.06794  -0.05293  -0.04825
 Alpha virt. eigenvalues --   -0.04371  -0.03508  -0.03372  -0.03100  -0.02758
 Alpha virt. eigenvalues --   -0.01817  -0.01327  -0.01141  -0.00722  -0.00360

 Mulliken charges:
               1
     1  C    1.147904
     2  C    0.757749
     3  N   -1.389757
     4  C    1.426984
     5  C    0.790348
     6  C    0.903762
     7  C    1.271145
     8  C    0.261285
     9  C    0.955531
    10  N    0.009816
    11  C    1.071375
    12  O   -0.732856
    13  O   -0.437121
    14  O   -0.649729
    15  O   -0.452840
    16  H   -0.466255
    17  H   -0.365423
    18  H   -0.214090
    19  H   -0.448143
    20  H   -0.466721
    21  H   -0.452406
    22  H   -0.738842
    23  H   -1.263772
    24  H   -0.722277
    25  H   -0.588970
    26  H   -0.956668
    27  C    1.032395
    28  H    0.031808
    29  H    0.348480
    30  H    0.325825
    31  H    0.383082
    32  H    0.230936
    33  H    0.204071
    34  H    0.208221
    35  H    0.323278
    36  H    0.170115
    37  O   -0.344578
    38  H    0.257343
    39  H    0.149469
    40  H   -0.206465
    41  H   -0.125065
    42  H   -0.238942
 Sum of Mulliken charges =   1.00000

 Dipole moment (field-independent basis, Debye):
    X=             -3.8503    Y=              1.7799    Z=             -1.5663  Tot=              4.5217
 Quadrupole moment (field-independent basis, Debye-Ang):
   XX=            -54.1633   YY=            -74.8332   ZZ=            -90.4219
   XY=              3.8372   XZ=              0.7207   YZ=              5.1169

  Exact polarizability: 194.883  -8.557 173.680   5.384   4.649 140.833
 Approx polarizability: 199.978  -3.952 196.671   5.655   7.555 156.841

                      1                      2                      3
                      A                      A                      A
 Frequencies --     24.1205                39.4614                47.7206
 Red. masses --      3.6428                 3.6390                 4.4589
 Frc consts  --      0.0012                 0.0033                 0.0060
 IR Inten    --      0.2956                 0.0664                 0.1338

                      4                      5                      6
                      A                      A                      A
 Frequencies --     60.0111                64.9129                73.7380
 Red. masses --      5.2740                 4.9023                 4.1522
 Frc consts  --      0.0112                 0.0122                 0.0133
 IR Inten    --      1.1019                 2.2660                 0.0714

                      7                      8                      9
                      A                      A                      A
 Frequencies --     79.8287                84.9647                87.0689
 Red. masses --      5.4609                 5.8024                 5.3473
 Frc consts  --      0.0205                 0.0247                 0.0239
 IR Inten    --      2.7317                 4.4283                 3.2088

                     10                     11                     12
                      A                      A                      A
 Frequencies --    114.0322               134.3619               163.3026
 Red. masses --      4.0491                 4.5438                 5.2048
 Frc consts  --      0.0310                 0.0483                 0.0818
 IR Inten    --      0.2274                 0.3972                 6.7727

                     13                     14                     15
                      A                      A                      A
 Frequencies --    169.5733               202.4246               208.8619
 Red. masses --      4.6119                 3.1724                 4.2707
 Frc consts  --      0.0781                 0.0766                 0.1098
 IR Inten    --      2.3454                 2.7925                 6.9840

                     16                     17                     18
                      A                      A                      A
 Frequencies --    232.3915               237.0535               257.2039
 Red. masses --      2.6864                 2.5864                 5.5267
 Frc consts  --      0.0855                 0.0856                 0.2154
 IR Inten    --     15.3918                12.3911                20.6826

                     19                     20                     21
                      A                      A                      A
 Frequencies --    263.4193               269.1975               277.2111
 Red. masses --      1.7082                 1.7122                 1.1486
 Frc consts  --      0.0698                 0.0731                 0.0520
 IR Inten    --      3.3535                 0.6315                47.0238

                     22                     23                     24
                      A                      A                      A
 Frequencies --    293.9427               311.5114               323.9245
 Red. masses --      1.1528                 4.2506                 1.1912
 Frc consts  --      0.0587                 0.2430                 0.0736
 IR Inten    --     78.0795                63.4961                46.6011

                     25                     26                     27
                      A                      A                      A
 Frequencies --    335.6533               356.4218               364.0806
 Red. masses --      3.9652                 1.3075                 3.1895
 Frc consts  --      0.2632                 0.0979                 0.2491
 IR Inten    --      0.2738                29.4527                 5.8849

                     28                     29                     30
                      A                      A                      A
 Frequencies --    384.0558               399.9673               420.3369
 Red. masses --      2.9306                 2.7381                 2.5283
 Frc consts  --      0.2547                 0.2581                 0.2632
 IR Inten    --     12.6898                 2.3813                 3.3805

                     31                     32                     33
                      A                      A                      A
 Frequencies --    428.5462               504.9684               517.8408
 Red. masses --      1.1341                 1.0793                 1.0895
 Frc consts  --      0.1227                 0.1621                 0.1721
 IR Inten    --    129.7213                63.8957                85.9936

                     34                     35                     36
                      A                      A                      A
 Frequencies --    558.9702               580.4066               592.8390
 Red. masses --      3.5971                 2.3071                 1.1153
 Frc consts  --      0.6622                 0.4579                 0.2309
 IR Inten    --      1.0416                 7.9271                54.6380

                     37                     38                     39
                      A                      A                      A
 Frequencies --    624.3638               631.9118               638.1089
 Red. masses --      1.5216                 2.4244                 2.9340
 Frc consts  --      0.3495                 0.5704                 0.7039
 IR Inten    --     15.1223                 3.7223                 9.5840

                     40                     41                     42
                      A                      A                      A
 Frequencies --    656.9090               681.2052               711.5117
 Red. masses --      3.3410                 1.0848                 1.8243
 Frc consts  --      0.8495                 0.2966                 0.5441
 IR Inten    --      4.6373                96.3231                55.0989

                     43                     44                     45
                      A                      A                      A
 Frequencies --    735.6484               783.0223               788.2835
 Red. masses --      1.0667                 1.5086                 1.3825
 Frc consts  --      0.3401                 0.5450                 0.5061
 IR Inten    --    183.3549                 5.8099                12.0282

                     46                     47                     48
                      A                      A                      A
 Frequencies --    828.5075               864.0770               872.9448
 Red. masses --      1.6333                 1.2176                 1.7715
 Frc consts  --      0.6605                 0.5356                 0.7954
 IR Inten    --     34.5806                46.2774                20.6015

                     49                     50                     51
                      A                      A                      A
 Frequencies --    907.2994               909.7261               934.4407
 Red. masses --      1.4993                 1.1951                 2.7814
 Frc consts  --      0.7272                 0.5827                 1.4309
 IR Inten    --    110.0469                71.1787                 7.8614

                     52                     53                     54
                      A                      A                      A
 Frequencies --    954.2603               967.1470               975.8802
 Red. masses --      2.0189                 1.3046                 1.7304
 Frc consts  --      1.0832                 0.7190                 0.9709
 IR Inten    --      8.1583                10.0481                 2.2877

                     55                     56                     57
                      A                      A                      A
 Frequencies --    993.5059              1028.6239              1037.5042
 Red. masses --      1.7944                 1.3410                 1.3582
 Frc consts  --      1.0435                 0.8360                 0.8614
 IR Inten    --      5.7832                11.4198                37.3776

                     58                     59                     60
                      A                      A                      A
 Frequencies --   1050.2679              1061.5330              1075.5955
 Red. masses --      2.3157                 1.8428                 2.2448
 Frc consts  --      1.5050                 1.2235                 1.5301
 IR Inten    --     15.5022                20.1806                 2.8338

                     61                     62                     63
                      A                      A                      A
 Frequencies --   1091.6408              1104.7274              1140.6883
 Red. masses --      2.2392                 1.7927                 1.2639
 Frc consts  --      1.5722                 1.2890                 0.9690
 IR Inten    --      4.3820                 2.8041                 6.0479

                     64                     65                     66
                      A                      A                      A
 Frequencies --   1149.8018              1158.2978              1178.3934
 Red. masses --      1.4997                 1.1083                 1.5180
 Frc consts  --      1.1681                 0.8761                 1.2420
 IR Inten    --     11.9190                44.5253                 8.2860

                     67                     68                     69
                      A                      A                      A
 Frequencies --   1211.3737              1219.2956              1236.7722
 Red. masses --      1.5460                 1.3463                 1.9236
 Frc consts  --      1.3367                 1.1793                 1.7336
 IR Inten    --     12.5429                 1.3546                17.9058

                     70                     71                     72
                      A                      A                      A
 Frequencies --   1258.9290              1266.8108              1274.7759
 Red. masses --      1.7336                 2.1039                 1.4602
 Frc consts  --      1.6188                 1.9893                 1.3981
 IR Inten    --      6.6158                16.8351                12.0828

                     73                     74                     75
                      A                      A                      A
 Frequencies --   1313.1259              1326.0384              1343.5589
 Red. masses --      1.3042                 1.7774                 1.3674
 Frc consts  --      1.3249                 1.8414                 1.4543
 IR Inten    --      0.4179                16.6326                 3.2311

                     76                     77                     78
                      A                      A                      A
 Frequencies --   1352.4522              1375.9678              1381.8248
 Red. masses --      1.4749                 2.1488                 1.7329
 Frc consts  --      1.5895                 2.3970                 1.9495
 IR Inten    --      1.2563                 9.6015                 9.0235

                     79                     80                     81
                      A                      A                      A
 Frequencies --   1389.6855              1438.8679              1452.1752
 Red. masses --      1.6725                 1.6571                 1.2138
 Frc consts  --      1.9031                 2.0214                 1.5082
 IR Inten    --      2.6297                24.3221                 2.6931

                     82                     83                     84
                      A                      A                      A
 Frequencies --   1484.9623              1487.6781              1492.4212
 Red. masses --      1.0478                 1.0720                 1.0753
 Frc consts  --      1.3613                 1.3979                 1.4111
 IR Inten    --     13.5087                10.4177                 9.0694

                     85                     86                     87
                      A                      A                      A
 Frequencies --   1504.8487              1513.9617              1523.4957
 Red. masses --      1.1384                 1.6153                 1.2885
 Frc consts  --      1.5190                 2.1814                 1.7621
 IR Inten    --      6.6433                25.4165                10.6973

                     88                     89                     90
                      A                      A                      A
 Frequencies --   1629.0798              1641.3447              1657.9282
 Red. masses --      2.1866                 1.0759                 1.0842
 Frc consts  --      3.4190                 1.7077                 1.7558
 IR Inten    --     38.0079               106.1700                88.4525

                     91                     92                     93
                      A                      A                      A
 Frequencies --   1672.3965              1684.5873              1705.5900
 Red. masses --      1.0727                 1.1770                 1.7672
 Frc consts  --      1.7676                 1.9680                 3.0289
 IR Inten    --     45.1738                61.5811                 2.4442

                     94                     95                     96
                      A                      A                      A
 Frequencies --   1711.8893              1720.4985              2988.1242
 Red. masses --      1.6730                 2.3556                 1.0716
 Frc consts  --      2.8887                 4.1083                 5.6376
 IR Inten    --     16.3085                14.4939                51.1042

                     97                     98                     99
                      A                      A                      A
 Frequencies --   2994.7106              2997.6099              3081.1068
 Red. masses --      1.0502                 1.0830                 1.0663
 Frc consts  --      5.5493                 5.7335                 5.9640
 IR Inten    --     50.3728                67.4407                12.1896

                    100                    101                    102
                      A                      A                      A
 Frequencies --   3099.1127              3099.9430              3126.8440
 Red. masses --      1.0856                 1.0658                 1.0938
 Frc consts  --      6.1433                 6.0346                 6.3007
 IR Inten    --     25.3817                14.3565                10.0829

                    103                    104                    105
                      A                      A                      A
 Frequencies --   3144.2009              3147.0623              3149.6166
 Red. masses --      1.1033                 1.0984                 1.0858
 Frc consts  --      6.4261                 6.4097                 6.3462
 IR Inten    --     12.6398                32.0608               359.0879

                    106                    107                    108
                      A                      A                      A
 Frequencies --   3158.8679              3212.6157              3223.9451
 Red. masses --      1.1041                 1.0927                 1.0794
 Frc consts  --      6.4909                 6.6444                 6.6103
 IR Inten    --     30.2818                 1.2567              1570.2727

                    109                    110                    111
                      A                      A                      A
 Frequencies --   3239.4256              3247.8483              3268.9377
 Red. masses --      1.0929                 1.0939                 1.0999
 Frc consts  --      6.7570                 6.7987                 6.9251
 IR Inten    --    502.2333                 4.1812                 8.3509

                    112                    113                    114
                      A                      A                      A
 Frequencies --   3315.0594              3448.5826              3592.7246
 Red. masses --      1.0661                 1.0662                 1.0615
 Frc consts  --      6.9029                 7.4707                 8.0725
 IR Inten    --    648.8755               658.0091               736.3630

                    115                    116                    117
                      A                      A                      A
 Frequencies --   3657.1400              3689.5873              3930.9526
 Red. masses --      1.0662                 1.0582                 1.0667
 Frc consts  --      8.4016                 8.4874                 9.7112
 IR Inten    --    372.0908               251.2637               105.1464

                    118                    119                    120
                      A                      A                      A
 Frequencies --   3938.0124              3941.6029              3942.8236
 Red. masses --      1.0692                 1.0670                 1.0708
 Frc consts  --      9.7694                 9.7673                 9.8075
 IR Inten    --     84.3250               135.2835               125.1907

 - Thermochemistry -
 -------------------
 Temperature   298.150 Kelvin.  Pressure   1.00000 Atm.
 Atom     1 has atomic number  6 and mass  12.00000

 Molecular mass:   253.17635 amu.
 Principal axes and moments of inertia in atomic units:
                           1         2         3
     Eigenvalues --  3414.864475923.881306828.22516
           X            0.99998   0.00645  -0.00046
           Y           -0.00643   0.99922   0.03905
           Z            0.00071  -0.03905   0.99924
 This molecule is an asymmetric top.
 Rotational symmetry number  1.
 Warning -- assumption of classical behavior for rotation
           may cause significant error
 Rotational temperatures (Kelvin)      0.02536     0.01462     0.01268
 Rotational constants (GHZ):           0.52850     0.30466     0.26431
 Zero-point vibrational energy     974411.9 (Joules/Mol)
                                  232.89003 (Kcal/Mol)
 Warning -- explicit consideration of  36 degrees of freedom as
           vibrations may cause significant error
 Vibrational temperatures:     34.70    56.78    68.66    86.34    93.40
          (Kelvin)            106.09   114.86   122.25   125.27   164.07
                              193.32   234.96   243.98   291.24   300.51
                              334.36   341.07   370.06   379.00   387.32
                              398.84   422.92   448.20   466.06   482.93
                              512.81   523.83   552.57   575.46   604.77
                              616.58   726.54   745.06   804.23   835.08
                              852.96   898.32   909.18   918.10   945.15
                              980.10  1023.71  1058.43  1126.59  1134.16
                             1192.04  1243.21  1255.97  1305.40  1308.89
                             1344.45  1372.97  1391.51  1404.07  1429.43
                             1479.96  1492.74  1511.10  1527.31  1547.54
                             1570.63  1589.46  1641.20  1654.31  1666.53
                             1695.45  1742.90  1754.29  1779.44  1811.32
                             1822.66  1834.12  1889.30  1907.87  1933.08
                             1945.88  1979.71  1988.14  1999.45  2070.21
                             2089.36  2136.53  2140.44  2147.26  2165.14
                             2178.25  2191.97  2343.88  2361.53  2385.39
                             2406.21  2423.75  2453.96  2463.03  2475.41
                             4299.24  4308.72  4312.89  4433.03  4458.93
                             4460.13  4498.83  4523.80  4527.92  4531.60
                             4544.91  4622.24  4638.54  4660.81  4672.93
                             4703.27  4769.63  4961.74  5169.13  5261.81
                             5308.49  5655.76  5665.92  5671.09  5672.84

 Zero-point correction=                           0.371134 (Hartree/Particle)
 Thermal correction to Energy=                    0.394352
 Thermal correction to Enthalpy=                  0.395296
 Thermal correction to Gibbs Free Energy=         0.318684
 Sum of electronic and zero-point Energies=           -881.104810
 Sum of electronic and thermal Energies=              -881.081592
 Sum of electronic and thermal Enthalpies=            -881.080648
 Sum of electronic and thermal Free Energies=         -881.157260

                     E (Thermal)             CV                S
                      KCal/Mol        Cal/Mol-Kelvin    Cal/Mol-Kelvin
 Total                  247.460             85.043            161.243
 Electronic               0.000              0.000              0.000
 Translational            0.889              2.981             42.487
 Rotational               0.889              2.981             33.290
 Vibrational            245.682             79.081             85.466
 Vibration     1          0.593              1.985              6.262
 Vibration     2          0.594              1.981              5.286
 Vibration     3          0.595              1.978              4.910
 Vibration     4          0.597              1.973              4.457
 Vibration     5          0.597              1.971              4.302
 Vibration     6          0.599              1.966              4.051
 Vibration     7          0.600              1.963              3.895
 Vibration     8          0.601              1.960              3.773
 Vibration     9          0.601              1.958              3.725
 Vibration    10          0.607              1.938              3.199
 Vibration    11          0.613              1.919              2.883
 Vibration    12          0.623              1.887              2.511
 Vibration    13          0.625              1.880              2.440
 Vibration    14          0.639              1.836              2.111
 Vibration    15          0.642              1.827              2.054
 Vibration    16          0.653              1.791              1.860
 Vibration    17          0.656              1.784              1.825
 Vibration    18          0.667              1.751              1.681
 Vibration    19          0.670              1.740              1.639
 Vibration    20          0.674              1.730              1.601
 Vibration    21          0.678              1.716              1.551
 Vibration    22          0.689              1.685              1.451
 Vibration    23          0.700              1.652              1.354
 Vibration    24          0.708              1.628              1.290
 Vibration    25          0.717              1.604              1.233
 Vibration    26          0.732              1.562              1.138
 Vibration    27          0.738              1.546              1.105
 Vibration    28          0.753              1.504              1.023
 Vibration    29          0.766              1.470              0.963
 Vibration    30          0.783              1.426              0.891
 Vibration    31          0.790              1.408              0.863
 Vibration    32          0.860              1.239              0.646
 Vibration    33          0.873              1.210              0.615
 Vibration    34          0.915              1.120              0.526
 Vibration    35          0.937              1.074              0.485
 Vibration    36          0.950              1.047              0.462

                           ! Non-Optimized Parameters !
 Normal termination of Gaussian 16 at Mon Dec 12 23:34:11 2022.
