 Gaussian 16, Revision A.03,
 Gaussian 16:  ES64L-G16RevA.03 25-Dec-2016

 -----------------------------
 # wB97XD/aug-cc-pVDZ opt freq
 -----------------------------

 ----
 blah
 ----
 Symbolic Z-matrix:
 Charge =  1 Multiplicity = 1

 SCF Done:  E(RwB97XD) =  -881.465595425     A.U. after   16 cycles
 SCF Done:  E(RwB97XD) =  -881.466136050     A.U. after   15 cycles
 SCF Done:  E(RwB97XD) =  -881.466300337     A.U. after   12 cycles
 SCF Done:  E(RwB97XD) =  -881.466339746     A.U. after   13 cycles
 SCF Done:  E(RwB97XD) =  -881.466711131     A.U. after   12 cycles
 SCF Done:  E(RwB97XD) =  -881.466823722     A.U. after   11 cycles
 SCF Done:  E(RwB97XD) =  -881.466870372     A.U. after   12 cycles
 SCF Done:  E(RwB97XD) =  -881.466940141     A.U. after   12 cycles
 SCF Done:  E(RwB97XD) =  -881.466953752     A.U. after   10 cycles
 SCF Done:  E(RwB97XD) =  -881.466978977     A.U. after   11 cycles
 SCF Done:  E(RwB97XD) =  -881.467067177     A.U. after   10 cycles
 SCF Done:  E(RwB97XD) =  -881.467067236     A.U. after    9 cycles
 SCF Done:  E(RwB97XD) =  -881.467067329     A.U. after    9 cycles
 SCF Done:  E(RwB97XD) =  -881.467067436     A.U. after    9 cycles
 SCF Done:  E(RwB97XD) =  -881.467067481     A.U. after    9 cycles
 SCF Done:  E(RwB97XD) =  -881.467067732     A.U. after    9 cycles
 SCF Done:  E(RwB97XD) =  -881.467067780     A.U. after    8 cycles
 SCF Done:  E(RwB97XD) =  -881.467067834     A.U. after    8 cycles
 SCF Done:  E(RwB97XD) =  -881.467067843     A.U. after    8 cycles
 Optimization completed.
    -- Stationary point found.
 Normal termination of Gaussian 16 at Fri Dec  9 15:16:50 2022.

 ----------------------------------------------------------------------
 #N Geom=AllCheck Guess=TCheck SCRF=Check GenChk RwB97XD/Aug-CC-pVDZ Fr
 eq
 ----------------------------------------------------------------------

 Structure from the checkpoint file:  "/gscratch/scrubbed/gds001/Gau-17758.chk"
 ----
 blah
 ----
 Charge =  1 Multiplicity = 1

                         Standard orientation:
 ---------------------------------------------------------------------
 Center     Atomic      Atomic             Coordinates (Angstroms)
 Number     Number       Type             X           Y           Z
 ---------------------------------------------------------------------
      1          6           0        1.707545    2.752418    0.437946
      2          6           0        1.299049    1.466439    0.081138
      3          6           0        0.039748    1.334187   -0.496463
      4          7           0       -0.738319    2.406967   -0.686151
      5          6           0       -0.362462    3.650701   -0.349897
      6          6           0        0.880298    3.855333    0.217139
      7          6           0        2.182367    0.260071    0.294897
      8          7           0        1.501224   -0.834454    0.992943
      9          6           0        2.419569   -1.970723    0.843036
     10          6           0        2.878725   -1.889619   -0.618428
     11          6           0        2.678279   -0.404245   -1.004187
     12          8           0       -3.149335    1.700920   -1.435912
     13          8           0       -2.978307   -0.357628    0.146397
     14          8           0       -0.717451   -1.711661   -0.533605
     15          1           0        1.903879   -2.906764    1.089306
     16          1           0        3.920658   -2.207641   -0.725194
     17          1           0        2.264455   -2.540089   -1.249737
     18          1           0        3.593513    0.076110   -1.366176
     19          1           0        1.919028   -0.304841   -1.789283
     20          1           0        3.276826   -1.863069    1.533712
     21          1           0        3.057479    0.590447    0.889886
     22          1           0       -0.376540    0.376288   -0.809703
     23          1           0       -1.078852    4.445357   -0.542714
     24          1           0        1.191660    4.860118    0.492219
     25          1           0        2.684917    2.897016    0.899223
     26          6           0        1.164869   -0.539424    2.378236
     27          1           0       -1.705057    2.226356   -1.088802
     28          1           0        0.036009   -1.495520    0.057927
     29          1           0       -0.529824   -2.584929   -0.913115
     30          1           0       -3.234402    0.868761   -0.897003
     31          1           0       -3.517241    1.526568   -2.304558
     32          1           0       -3.682715   -0.819174    0.630380
     33          1           0       -2.279171   -1.007520   -0.059186
     34          8           0        0.085482   -4.201542   -1.585468
     35          1           0       -0.142136   -5.022955   -1.141078
     36          1           0        0.006407   -4.391820   -2.524310
     37          1           0        0.448239    0.289943    2.425454
     38          1           0        2.059269   -0.274094    2.972307
     39          1           0        0.693227   -1.418391    2.832287
     40          8           0       -5.004291   -1.681972    1.553045
     41          1           0       -5.248050   -1.424980    2.446151
     42          1           0       -5.818626   -1.978542    1.138301
 ---------------------------------------------------------------------

 SCF Done:  E(RwB97XD) =  -881.467067843     A.U. after    1 cycles

 The electronic state is 1-A.
 Alpha  occ. eigenvalues --  -19.39710 -19.38590 -19.37603 -19.35410 -19.34797
 Alpha  occ. eigenvalues --  -14.66222 -14.56795 -10.49955 -10.49257 -10.46818
 Alpha  occ. eigenvalues --  -10.46198 -10.45903 -10.45396 -10.42339 -10.42127
 Alpha  occ. eigenvalues --  -10.40572 -10.39445  -1.24671  -1.23989  -1.22912
 Alpha  occ. eigenvalues --   -1.21988  -1.20026  -1.18511  -1.16388  -1.07237
 Alpha  occ. eigenvalues --   -1.03591  -0.99512  -0.94893  -0.89494  -0.88659
 Alpha  occ. eigenvalues --   -0.87735  -0.81444  -0.78648  -0.78466  -0.74278
 Alpha  occ. eigenvalues --   -0.73799  -0.73660  -0.73272  -0.72626  -0.71648
 Alpha  occ. eigenvalues --   -0.71221  -0.69925  -0.68619  -0.67580  -0.66806
 Alpha  occ. eigenvalues --   -0.64613  -0.63532  -0.62807  -0.61879  -0.61343
 Alpha  occ. eigenvalues --   -0.60753  -0.60143  -0.58318  -0.57421  -0.56379
 Alpha  occ. eigenvalues --   -0.56251  -0.55506  -0.54736  -0.54225  -0.52944
 Alpha  occ. eigenvalues --   -0.52602  -0.52297  -0.51542  -0.51351  -0.50869
 Alpha  occ. eigenvalues --   -0.49476  -0.48704  -0.48228  -0.43052
 Alpha virt. eigenvalues --   -0.12793  -0.09976  -0.05775  -0.05156  -0.04510
 Alpha virt. eigenvalues --   -0.04233  -0.03457  -0.02958  -0.02524  -0.02440
 Alpha virt. eigenvalues --   -0.01837  -0.01210  -0.00852  -0.00589  -0.00342

 Mulliken charges:
               1
     1  C    1.270189
     2  C    0.636912
     3  C    0.604629
     4  N    0.037130
     5  C    0.734699
     6  C    0.369789
     7  C    1.396456
     8  N   -1.206581
     9  C    1.251430
    10  C    1.056072
    11  C    1.014062
    12  O   -0.481197
    13  O   -0.429098
    14  O   -0.488573
    15  H   -0.569837
    16  H   -0.313710
    17  H   -0.360134
    18  H   -0.529918
    19  H   -0.313218
    20  H   -0.577462
    21  H   -0.867153
    22  H   -1.204774
    23  H   -0.626457
    24  H   -0.564598
    25  H   -0.902548
    26  C    0.919111
    27  H    0.090669
    28  H    0.511026
    29  H    0.212571
    30  H    0.273222
    31  H    0.154816
    32  H    0.248036
    33  H    0.264858
    34  O   -0.462325
    35  H    0.212602
    36  H    0.205302
    37  H   -0.169934
    38  H   -0.179468
    39  H   -0.202195
    40  O   -0.297644
    41  H    0.140885
    42  H    0.142359
 Sum of Mulliken charges =   1.00000

 Dipole moment (field-independent basis, Debye):
    X=             -1.4193    Y=              0.5953    Z=             -0.5748  Tot=              1.6429
 Quadrupole moment (field-independent basis, Debye-Ang):
   XX=            -54.8925   YY=            -43.3917   ZZ=            -84.7530
   XY=             11.1689   XZ=             -0.8557   YZ=              4.7347

  Exact polarizability: 177.475  -8.398 197.988  10.182   1.444 143.574
 Approx polarizability: 188.901  -3.052 200.674  14.586   4.485 162.606

                      1                      2                      3
                      A                      A                      A
 Frequencies --     14.4914                19.1500                28.1986
 Red. masses --      4.7142                 4.8372                 4.7682
 Frc consts  --      0.0006                 0.0010                 0.0022
 IR Inten    --      0.2410                 3.0709                 0.3249

                      4                      5                      6
                      A                      A                      A
 Frequencies --     37.7278                39.9678                52.8385
 Red. masses --      4.5342                 4.4108                 4.6186
 Frc consts  --      0.0038                 0.0042                 0.0076
 IR Inten    --      0.1973                 1.6198                 2.3639

                      7                      8                      9
                      A                      A                      A
 Frequencies --     58.5094                71.2090                76.8662
 Red. masses --      4.5015                 5.3632                 3.5283
 Frc consts  --      0.0091                 0.0160                 0.0123
 IR Inten    --      2.5758                 1.7124                 1.1940

                     10                     11                     12
                      A                      A                      A
 Frequencies --     83.6584                95.7307               105.0501
 Red. masses --      1.1169                 2.3512                 4.3956
 Frc consts  --      0.0046                 0.0127                 0.0286
 IR Inten    --     21.0932                 0.5483                 2.2479

                     13                     14                     15
                      A                      A                      A
 Frequencies --    120.4340               129.0031               136.0932
 Red. masses --      3.7886                 3.8676                 1.1291
 Frc consts  --      0.0324                 0.0379                 0.0123
 IR Inten    --      3.3451                 1.5831                24.9687

                     16                     17                     18
                      A                      A                      A
 Frequencies --    158.8314               186.0143               197.6760
 Red. masses --      1.9720                 3.2255                 1.3764
 Frc consts  --      0.0293                 0.0658                 0.0317
 IR Inten    --      0.8761                 3.1326               205.5825

                     19                     20                     21
                      A                      A                      A
 Frequencies --    204.9055               209.5299               227.3823
 Red. masses --      3.0400                 4.0504                 1.1574
 Frc consts  --      0.0752                 0.1048                 0.0353
 IR Inten    --      3.5997                28.8997                10.2845

                     22                     23                     24
                      A                      A                      A
 Frequencies --    228.4462               244.7161               255.2380
 Red. masses --      1.1336                 1.1571                 3.4320
 Frc consts  --      0.0349                 0.0408                 0.1317
 IR Inten    --     10.9919                 0.6726                 4.0833

                     25                     26                     27
                      A                      A                      A
 Frequencies --    263.0067               268.6550               292.3586
 Red. masses --      1.4246                 3.2856                 2.7670
 Frc consts  --      0.0581                 0.1397                 0.1393
 IR Inten    --    226.8704                30.1756                31.8701

                     28                     29                     30
                      A                      A                      A
 Frequencies --    299.7305               313.4416               358.1490
 Red. masses --      1.4015                 3.5959                 5.6587
 Frc consts  --      0.0742                 0.2081                 0.4277
 IR Inten    --     66.8656                15.8370                16.6078

                     31                     32                     33
                      A                      A                      A
 Frequencies --    394.6299               413.0910               420.8351
 Red. masses --      2.8950                 3.1025                 3.0102
 Frc consts  --      0.2656                 0.3119                 0.3141
 IR Inten    --     11.4927                 6.3069                 5.8522

                     34                     35                     36
                      A                      A                      A
 Frequencies --    535.7522               560.0689               584.4190
 Red. masses --      1.5990                 1.9657                 2.4671
 Frc consts  --      0.2704                 0.3633                 0.4965
 IR Inten    --     18.3444                19.6859                 7.1246

                     37                     38                     39
                      A                      A                      A
 Frequencies --    602.5978               634.1522               638.7565
 Red. masses --      1.1151                 1.4300                 2.7421
 Frc consts  --      0.2386                 0.3388                 0.6592
 IR Inten    --     11.9590                28.5546                33.3113

                     40                     41                     42
                      A                      A                      A
 Frequencies --    650.3651               673.0787               702.6140
 Red. masses --      2.4987                 5.0436                 1.1581
 Frc consts  --      0.6227                 1.3462                 0.3369
 IR Inten    --     18.2387                 5.6198                25.6195

                     43                     44                     45
                      A                      A                      A
 Frequencies --    720.1573               731.1611               782.5597
 Red. masses --      1.7168                 1.0468                 1.3895
 Frc consts  --      0.5246                 0.3297                 0.5013
 IR Inten    --     88.0275                96.4932                85.0574

                     46                     47                     48
                      A                      A                      A
 Frequencies --    786.4590               835.6512               838.4515
 Red. masses --      1.1506                 1.1861                 1.4390
 Frc consts  --      0.4193                 0.4880                 0.5960
 IR Inten    --    125.0871                21.4795                50.8634

                     49                     50                     51
                      A                      A                      A
 Frequencies --    844.1179               935.4008               938.8411
 Red. masses --      1.9963                 1.8833                 2.6794
 Frc consts  --      0.8381                 0.9709                 1.3915
 IR Inten    --      3.4029                 6.0636                20.4620

                     52                     53                     54
                      A                      A                      A
 Frequencies --    955.8768               980.4904               986.8958
 Red. masses --      2.4034                 1.3308                 1.3806
 Frc consts  --      1.2939                 0.7538                 0.7922
 IR Inten    --     13.4602                23.4443                49.0372

                     55                     56                     57
                      A                      A                      A
 Frequencies --   1001.8824              1018.9510              1038.8312
 Red. masses --      1.3374                 1.5220                 1.3519
 Frc consts  --      0.7910                 0.9310                 0.8596
 IR Inten    --     50.9356                23.3534                 4.6712

                     58                     59                     60
                      A                      A                      A
 Frequencies --   1045.0802              1055.9423              1076.6874
 Red. masses --      4.3095                 2.3403                 1.8164
 Frc consts  --      2.7732                 1.5374                 1.2406
 IR Inten    --      5.3750                 2.0957                16.9306

                     61                     62                     63
                      A                      A                      A
 Frequencies --   1094.1512              1118.1816              1142.1685
 Red. masses --      2.1503                 2.2831                 1.2847
 Frc consts  --      1.5167                 1.6819                 0.9875
 IR Inten    --      4.7276                 9.4295                 3.5923

                     64                     65                     66
                      A                      A                      A
 Frequencies --   1149.5948              1200.5172              1214.3662
 Red. masses --      1.5149                 1.7568                 1.3204
 Frc consts  --      1.1796                 1.4918                 1.1472
 IR Inten    --      6.6986                14.8951                 8.5260

                     67                     68                     69
                      A                      A                      A
 Frequencies --   1226.8487              1244.8450              1251.8646
 Red. masses --      1.4417                 1.7172                 1.1046
 Frc consts  --      1.2785                 1.5678                 1.0200
 IR Inten    --      5.2783                 8.1045                30.4531

                     70                     71                     72
                      A                      A                      A
 Frequencies --   1260.2049              1264.3461              1292.5966
 Red. masses --      1.7613                 1.8290                 1.4721
 Frc consts  --      1.6480                 1.7227                 1.4491
 IR Inten    --     12.5932                15.2903                 1.4874

                     73                     74                     75
                      A                      A                      A
 Frequencies --   1299.7727              1329.6619              1332.9778
 Red. masses --      1.4947                 1.3944                 2.1306
 Frc consts  --      1.4877                 1.4525                 2.2305
 IR Inten    --     11.8449                 6.2522                14.8988

                     76                     77                     78
                      A                      A                      A
 Frequencies --   1356.7066              1379.6421              1382.2149
 Red. masses --      1.3790                 1.7539                 1.5436
 Frc consts  --      1.4955                 1.9669                 1.7376
 IR Inten    --      4.8939                15.1681                 4.3842

                     79                     80                     81
                      A                      A                      A
 Frequencies --   1401.8219              1441.7331              1452.6628
 Red. masses --      1.8387                 1.5180                 1.2652
 Frc consts  --      2.1288                 1.8591                 1.5730
 IR Inten    --      3.0554                19.7607                10.5968

                     82                     83                     84
                      A                      A                      A
 Frequencies --   1481.9002              1486.0568              1490.1268
 Red. masses --      1.0460                 1.0633                 1.0819
 Frc consts  --      1.3533                 1.3835                 1.4154
 IR Inten    --     14.4923                 8.4309                 2.3310

                     85                     86                     87
                      A                      A                      A
 Frequencies --   1507.3840              1518.1194              1526.2770
 Red. masses --      1.0879                 1.6507                 1.3210
 Frc consts  --      1.4564                 2.2415                 1.8131
 IR Inten    --     11.7884                39.2548                 8.1068

                     88                     89                     90
                      A                      A                      A
 Frequencies --   1613.2892              1631.1089              1637.2421
 Red. masses --      1.1787                 1.1662                 1.1056
 Frc consts  --      1.8076                 1.8281                 1.7462
 IR Inten    --     89.2614                66.5052                78.4393

                     91                     92                     93
                      A                      A                      A
 Frequencies --   1638.2850              1676.2224              1695.8059
 Red. masses --      1.6758                 1.1127                 1.3911
 Frc consts  --      2.6500                 1.8419                 2.3571
 IR Inten    --     16.5196                27.5444                22.7299

                     94                     95                     96
                      A                      A                      A
 Frequencies --   1709.0486              1724.2701              2779.4573
 Red. masses --      2.4325                 2.1776                 1.1094
 Frc consts  --      4.1861                 3.8145                 5.0497
 IR Inten    --     11.7424                36.2467              2175.9534

                     97                     98                     99
                      A                      A                      A
 Frequencies --   2960.2641              2987.2639              2990.3725
 Red. masses --      1.0832                 1.0544                 1.0685
 Frc consts  --      5.5925                 5.5437                 5.6296
 IR Inten    --     41.4691                24.9297               100.1611

                    100                    101                    102
                      A                      A                      A
 Frequencies --   3086.4613              3103.7232              3105.1230
 Red. masses --      1.0634                 1.0652                 1.0842
 Frc consts  --      5.9686                 6.0457                 6.1590
 IR Inten    --     15.9507                15.4011                19.3992

                    103                    104                    105
                      A                      A                      A
 Frequencies --   3117.4849              3143.4493              3148.5056
 Red. masses --      1.0910                 1.1046                 1.1038
 Frc consts  --      6.2472                 6.4309                 6.4471
 IR Inten    --     19.8834                 3.1669                13.7451

                    106                    107                    108
                      A                      A                      A
 Frequencies --   3162.7767              3205.3839              3212.0790
 Red. masses --      1.1064                 1.0985                 1.0923
 Frc consts  --      6.5205                 6.6496                 6.6402
 IR Inten    --     20.6235                58.5494                 0.8305

                    109                    110                    111
                      A                      A                      A
 Frequencies --   3244.8287              3260.6479              3262.6077
 Red. masses --      1.0928                 1.1002                 1.0658
 Frc consts  --      6.7794                 6.8919                 6.6846
 IR Inten    --      0.9671                 3.6767              1202.3294

                    112                    113                    114
                      A                      A                      A
 Frequencies --   3448.8558              3595.4774              3709.5347
 Red. masses --      1.0645                 1.0578                 1.0727
 Frc consts  --      7.4598                 8.0566                 8.6967
 IR Inten    --    906.4779               425.0284               824.6231

                    115                    116                    117
                      A                      A                      A
 Frequencies --   3725.9281              3872.8011              3878.3728
 Red. masses --      1.0716                 1.0456                 1.0453
 Frc consts  --      8.7649                 9.2395                 9.2640
 IR Inten    --    735.6927                21.9927                17.0543

                    118                    119                    120
                      A                      A                      A
 Frequencies --   3950.9507              3976.9855              3984.5566
 Red. masses --      1.0669                 1.0824                 1.0827
 Frc consts  --      9.8126                10.0865                10.1276
 IR Inten    --     99.3973                99.9884               101.7717

 - Thermochemistry -
 -------------------
 Temperature   298.150 Kelvin.  Pressure   1.00000 Atm.
 Atom     1 has atomic number  6 and mass  12.00000

 Molecular mass:   253.17635 amu.
 Principal axes and moments of inertia in atomic units:
                           1         2         3
     Eigenvalues --  5470.412725806.773859143.67301
           X            0.99952  -0.03105   0.00065
           Y            0.03105   0.99951   0.00421
           Z           -0.00078  -0.00419   0.99999
 This molecule is an asymmetric top.
 Rotational symmetry number  1.
 Warning -- assumption of classical behavior for rotation
           may cause significant error
 Rotational temperatures (Kelvin)      0.01583     0.01492     0.00947
 Rotational constants (GHZ):           0.32991     0.31080     0.19738
 Zero-point vibrational energy     964469.5 (Joules/Mol)
                                  230.51375 (Kcal/Mol)
 Warning -- explicit consideration of  37 degrees of freedom as
           vibrations may cause significant error
 Vibrational temperatures:     20.85    27.55    40.57    54.28    57.50
          (Kelvin)             76.02    84.18   102.45   110.59   120.37
                              137.74   151.14   173.28   185.61   195.81
                              228.52   267.63   284.41   294.81   301.47
                              327.15   328.68   352.09   367.23   378.41
                              386.53   420.64   431.25   450.97   515.30
                              567.78   594.35   605.49   770.83   805.81
                              840.85   867.00   912.40   919.03   935.73
                              968.41  1010.90  1036.15  1051.98  1125.93
                             1131.54  1202.32  1206.34  1214.50  1345.83
                             1350.78  1375.29  1410.71  1419.92  1441.49
                             1466.04  1494.65  1503.64  1519.27  1549.11
                             1574.24  1608.81  1643.33  1654.01  1727.28
                             1747.20  1765.16  1791.05  1801.15  1813.15
                             1819.11  1859.76  1870.08  1913.09  1917.86
                             1952.00  1985.00  1988.70  2016.91  2074.33
                             2090.06  2132.12  2138.10  2143.96  2168.79
                             2184.24  2195.97  2321.16  2346.80  2355.63
                             2357.13  2411.71  2439.89  2458.94  2480.84
                             3999.02  4259.16  4298.01  4302.48  4440.73
                             4465.57  4467.58  4485.37  4522.72  4530.00
                             4550.53  4611.83  4621.47  4668.58  4691.35
                             4694.16  4962.13  5173.09  5337.19  5360.78
                             5572.10  5580.11  5684.54  5722.00  5732.89

 Zero-point correction=                           0.367347 (Hartree/Particle)
 Thermal correction to Energy=                    0.393078
 Thermal correction to Enthalpy=                  0.394022
 Thermal correction to Gibbs Free Energy=         0.308044
 Sum of electronic and zero-point Energies=           -881.099721
 Sum of electronic and thermal Energies=              -881.073990
 Sum of electronic and thermal Enthalpies=            -881.073046
 Sum of electronic and thermal Free Energies=         -881.159024

                     E (Thermal)             CV                S
                      KCal/Mol        Cal/Mol-Kelvin    Cal/Mol-Kelvin
 Total                  246.660             88.199            180.956
 Electronic               0.000              0.000              0.000
 Translational            0.889              2.981             42.487
 Rotational               0.889              2.981             34.029
 Vibrational            244.883             82.238            104.441
 Vibration     1          0.593              1.986              7.274
 Vibration     2          0.593              1.986              6.720
 Vibration     3          0.593              1.984              5.952
 Vibration     4          0.594              1.982              5.375
 Vibration     5          0.594              1.981              5.261
 Vibration     6          0.596              1.976              4.708
 Vibration     7          0.596              1.974              4.507
 Vibration     8          0.598              1.968              4.120
 Vibration     9          0.599              1.965              3.969
 Vibration    10          0.601              1.960              3.803
 Vibration    11          0.603              1.952              3.539
 Vibration    12          0.605              1.945              3.358
 Vibration    13          0.609              1.932              3.093
 Vibration    14          0.611              1.924              2.961
 Vibration    15          0.614              1.917              2.858
 Vibration    16          0.621              1.893              2.564
 Vibration    17          0.632              1.859              2.267
 Vibration    18          0.637              1.843              2.155
 Vibration    19          0.640              1.833              2.089
 Vibration    20          0.642              1.826              2.048
 Vibration    21          0.651              1.799              1.900
 Vibration    22          0.651              1.798              1.891
 Vibration    23          0.660              1.772              1.768
 Vibration    24          0.666              1.754              1.694
 Vibration    25          0.670              1.741              1.642
 Vibration    26          0.673              1.731              1.605
 Vibration    27          0.688              1.688              1.460
 Vibration    28          0.692              1.674              1.418
 Vibration    29          0.701              1.648              1.344
 Vibration    30          0.733              1.559              1.130
 Vibration    31          0.762              1.482              0.983
 Vibration    32          0.777              1.442              0.916
 Vibration    33          0.783              1.425              0.889
 Vibration    34          0.891              1.171              0.574
 Vibration    35          0.916              1.118              0.524
 Vibration    36          0.941              1.065              0.477
 Vibration    37          0.961              1.026              0.445

                           ! Non-Optimized Parameters !
 Normal termination of Gaussian 16 at Fri Dec  9 16:42:07 2022.
