 Gaussian 16, Revision A.03,
 Gaussian 16:  ES64L-G16RevA.03 25-Dec-2016

 -----------------------------
 # wB97XD/aug-cc-pVDZ opt freq
 -----------------------------

 ----
 blah
 ----
 Symbolic Z-matrix:
 Charge =  1 Multiplicity = 1

 SCF Done:  E(RwB97XD) =  -881.466183951     A.U. after   16 cycles
 SCF Done:  E(RwB97XD) =  -881.466958897     A.U. after   15 cycles
 SCF Done:  E(RwB97XD) =  -881.466824989     A.U. after   17 cycles
 SCF Done:  E(RwB97XD) =  -881.467369151     A.U. after   13 cycles
 SCF Done:  E(RwB97XD) =  -881.467776291     A.U. after   12 cycles
 SCF Done:  E(RwB97XD) =  -881.467509279     A.U. after   14 cycles
 SCF Done:  E(RwB97XD) =  -881.468124662     A.U. after   13 cycles
 SCF Done:  E(RwB97XD) =  -881.468158342     A.U. after   12 cycles
 SCF Done:  E(RwB97XD) =  -881.468248948     A.U. after   11 cycles
 SCF Done:  E(RwB97XD) =  -881.468308139     A.U. after   11 cycles
 SCF Done:  E(RwB97XD) =  -881.468409615     A.U. after    9 cycles
 SCF Done:  E(RwB97XD) =  -881.468409764     A.U. after    9 cycles
 SCF Done:  E(RwB97XD) =  -881.468409914     A.U. after    9 cycles
 SCF Done:  E(RwB97XD) =  -881.468409988     A.U. after    8 cycles
 SCF Done:  E(RwB97XD) =  -881.468410027     A.U. after    8 cycles
 SCF Done:  E(RwB97XD) =  -881.468410052     A.U. after    7 cycles
 SCF Done:  E(RwB97XD) =  -881.468410070     A.U. after    6 cycles
 SCF Done:  E(RwB97XD) =  -881.468410084     A.U. after    7 cycles
 SCF Done:  E(RwB97XD) =  -881.468410094     A.U. after    8 cycles
 Optimization completed on the basis of negligible forces.
    -- Stationary point found.
 Normal termination of Gaussian 16 at Tue Dec  6 15:03:24 2022.

 ----------------------------------------------------------------------
 #N Geom=AllCheck Guess=TCheck SCRF=Check GenChk RwB97XD/Aug-CC-pVDZ Fr
 eq
 ----------------------------------------------------------------------

 Structure from the checkpoint file:  "/gscratch/scrubbed/gds001/Gau-8458.chk"
 ----
 blah
 ----
 Charge =  1 Multiplicity = 1

                         Standard orientation:
 ---------------------------------------------------------------------
 Center     Atomic      Atomic             Coordinates (Angstroms)
 Number     Number       Type             X           Y           Z
 ---------------------------------------------------------------------
      1          6           0        1.521331    2.661301   -0.072345
      2          6           0        1.439344    1.275838   -0.224696
      3          6           0        0.184779    0.693164   -0.077286
      4          7           0       -0.889472    1.437165    0.208194
      5          6           0       -0.827204    2.767670    0.356122
      6          6           0        0.384316    3.418251    0.211911
      7          6           0        2.653892    0.440509   -0.551691
      8          7           0        2.838070   -0.701750    0.353755
      9          6           0        3.891280   -1.491942   -0.300665
     10          6           0        3.501653   -1.480685   -1.785044
     11          6           0        2.625477   -0.215105   -1.944557
     12          8           0       -2.966330    0.039320    0.752468
     13          8           0       -1.286932   -1.571632    2.142507
     14          8           0        0.654120   -2.424081    0.410559
     15          1           0        3.939306   -2.496007    0.138448
     16          1           0        4.387871   -1.455341   -2.426847
     17          1           0        2.931243   -2.378135   -2.048524
     18          1           0        2.996883    0.473382   -2.710786
     19          1           0        1.596366   -0.482812   -2.212790
     20          1           0        4.875520   -1.011948   -0.149224
     21          1           0        3.539517    1.102681   -0.483245
     22          1           0        0.008634   -0.377036   -0.173375
     23          1           0       -1.759670    3.273736    0.594389
     24          1           0        0.438879    4.497627    0.331366
     25          1           0        2.487063    3.157344   -0.173716
     26          6           0        3.167534   -0.323099    1.722634
     27          1           0       -1.825882    0.903631    0.365881
     28          1           0        1.477535   -1.872721    0.406629
     29          1           0        0.904563   -3.322003    0.184273
     30          1           0       -2.578793   -0.682821    1.283721
     31          1           0       -3.605115   -0.342451    0.111122
     32          1           0       -1.405676   -2.077643    2.948577
     33          1           0       -0.599808   -2.027425    1.619484
     34          8           0       -4.723908   -0.872005   -1.068119
     35          1           0       -5.677464   -0.721200   -0.933570
     36          1           0       -4.657257   -1.718579   -1.514802
     37          1           0        3.332222   -1.227105    2.320073
     38          1           0        2.334694    0.232489    2.170820
     39          1           0        4.079939    0.298966    1.767901
     40          8           0       -7.447634   -0.515295   -0.748996
     41          1           0       -7.999374    0.022570   -1.322521
     42          1           0       -7.950324   -0.642961    0.059424
 ---------------------------------------------------------------------

 SCF Done:  E(RwB97XD) =  -881.468410094     A.U. after    1 cycles

 The electronic state is 1-A.
 Alpha  occ. eigenvalues --  -19.38663 -19.37859 -19.36910 -19.36395 -19.36062
 Alpha  occ. eigenvalues --  -14.65322 -14.57627 -10.49575 -10.49171 -10.46662
 Alpha  occ. eigenvalues --  -10.46169 -10.45806 -10.45677 -10.43073 -10.42652
 Alpha  occ. eigenvalues --  -10.41035 -10.40248  -1.24084  -1.23061  -1.22379
 Alpha  occ. eigenvalues --   -1.21406  -1.20747  -1.19649  -1.17015  -1.07053
 Alpha  occ. eigenvalues --   -1.03384  -1.00081  -0.95169  -0.89223  -0.88975
 Alpha  occ. eigenvalues --   -0.87792  -0.81250  -0.79292  -0.78734  -0.73718
 Alpha  occ. eigenvalues --   -0.73595  -0.73460  -0.72956  -0.72679  -0.71841
 Alpha  occ. eigenvalues --   -0.71718  -0.70317  -0.69106  -0.67586  -0.66536
 Alpha  occ. eigenvalues --   -0.64977  -0.63811  -0.63087  -0.62166  -0.61033
 Alpha  occ. eigenvalues --   -0.60511  -0.60165  -0.58310  -0.57699  -0.56771
 Alpha  occ. eigenvalues --   -0.56319  -0.55831  -0.55299  -0.54628  -0.53554
 Alpha  occ. eigenvalues --   -0.52269  -0.51644  -0.51593  -0.51424  -0.50445
 Alpha  occ. eigenvalues --   -0.50164  -0.49627  -0.48233  -0.44027
 Alpha virt. eigenvalues --   -0.12482  -0.09867  -0.05665  -0.04920  -0.04567
 Alpha virt. eigenvalues --   -0.03842  -0.03626  -0.02838  -0.02454  -0.02250
 Alpha virt. eigenvalues --   -0.01815  -0.01471  -0.01077  -0.00645  -0.00246

 Mulliken charges:
               1
     1  C    1.253455
     2  C    0.715520
     3  C    0.616899
     4  N    0.005364
     5  C    0.792636
     6  C    0.318069
     7  C    1.423394
     8  N   -1.257309
     9  C    1.262381
    10  C    0.801046
    11  C    1.024336
    12  O   -0.483618
    13  O   -0.396207
    14  O   -0.445670
    15  H   -0.567327
    16  H   -0.274084
    17  H   -0.287378
    18  H   -0.517842
    19  H   -0.298640
    20  H   -0.558307
    21  H   -0.854077
    22  H   -1.286369
    23  H   -0.637795
    24  H   -0.567441
    25  H   -0.911807
    26  C    0.944421
    27  H    0.148653
    28  H    0.535729
    29  H    0.157576
    30  H    0.220906
    31  H    0.248980
    32  H    0.164760
    33  H    0.263215
    34  O   -0.334152
    35  H    0.224126
    36  H    0.117533
    37  H   -0.213545
    38  H   -0.148300
    39  H   -0.178008
    40  O   -0.316616
    41  H    0.145519
    42  H    0.149974
 Sum of Mulliken charges =   1.00000

 Dipole moment (field-independent basis, Debye):
    X=             -2.1352    Y=              1.3048    Z=             -0.1805  Tot=              2.5088
 Quadrupole moment (field-independent basis, Debye-Ang):
   XX=             -8.4963   YY=            -66.5935   ZZ=            -94.6437
   XY=              1.0711   XZ=              1.9453   YZ=             -1.4727

  Exact polarizability: 194.813 -11.005 182.446  -9.109   4.580 141.842
 Approx polarizability: 197.328  -2.690 198.162  -8.112   4.893 155.967

                      1                      2                      3
                      A                      A                      A
 Frequencies --     11.8931                14.1743                25.9117
 Red. masses --      4.6005                 5.1753                 3.9039
 Frc consts  --      0.0004                 0.0006                 0.0015
 IR Inten    --      0.6800                 1.0644                 0.1646

                      4                      5                      6
                      A                      A                      A
 Frequencies --     30.7516                34.9753                47.4823
 Red. masses --      4.9750                 5.1281                 4.0328
 Frc consts  --      0.0028                 0.0037                 0.0054
 IR Inten    --      1.2626                 3.2439                 0.5374

                      7                      8                      9
                      A                      A                      A
 Frequencies --     55.5457                70.4623                77.9535
 Red. masses --      4.6089                 2.8458                 2.8431
 Frc consts  --      0.0084                 0.0083                 0.0102
 IR Inten    --      0.5546                 0.3537                 6.3117

                     10                     11                     12
                      A                      A                      A
 Frequencies --     86.8073                94.0567                99.3825
 Red. masses --      2.3326                 1.6290                 4.4838
 Frc consts  --      0.0104                 0.0085                 0.0261
 IR Inten    --      0.7398                 8.5311                 3.0258

                     13                     14                     15
                      A                      A                      A
 Frequencies --    121.5355               134.5205               157.7764
 Red. masses --      4.1488                 1.1357                 2.0815
 Frc consts  --      0.0361                 0.0121                 0.0305
 IR Inten    --      2.5784               219.1516                 1.0775

                     16                     17                     18
                      A                      A                      A
 Frequencies --    170.1695               178.0104               204.6213
 Red. masses --      4.6678                 5.2073                 2.9032
 Frc consts  --      0.0796                 0.0972                 0.0716
 IR Inten    --      7.5006                52.3090                 0.8478

                     19                     20                     21
                      A                      A                      A
 Frequencies --    210.5003               223.0979               228.2311
 Red. masses --      1.2290                 3.6202                 1.1585
 Frc consts  --      0.0321                 0.1062                 0.0356
 IR Inten    --     29.8464                18.5420               195.3879

                     22                     23                     24
                      A                      A                      A
 Frequencies --    236.3285               240.2696               246.4432
 Red. masses --      1.1493                 1.1593                 1.2390
 Frc consts  --      0.0378                 0.0394                 0.0443
 IR Inten    --     85.6559                 8.1243                 2.2652

                     25                     26                     27
                      A                      A                      A
 Frequencies --    258.1934               264.5650               283.2473
 Red. masses --      3.5955                 2.6968                 4.9991
 Frc consts  --      0.1412                 0.1112                 0.2363
 IR Inten    --      6.8829                 1.3993                17.1221

                     28                     29                     30
                      A                      A                      A
 Frequencies --    313.0788               353.6249               401.2799
 Red. masses --      4.1562                 5.8450                 2.8363
 Frc consts  --      0.2400                 0.4306                 0.2691
 IR Inten    --      1.5381                27.1912                 9.1305

                     31                     32                     33
                      A                      A                      A
 Frequencies --    414.4636               417.0785               423.1986
 Red. masses --      2.7440                 1.0731                 3.1487
 Frc consts  --      0.2777                 0.1100                 0.3322
 IR Inten    --     16.6292                21.2910                 5.5806

                     34                     35                     36
                      A                      A                      A
 Frequencies --    460.4978               545.8784               549.9263
 Red. masses --      1.1087                 1.4885                 1.9743
 Frc consts  --      0.1385                 0.2613                 0.3518
 IR Inten    --     33.2627                17.1161                 6.8908

                     37                     38                     39
                      A                      A                      A
 Frequencies --    581.3012               635.8581               648.6439
 Red. masses --      2.9175                 4.6468                 3.2767
 Frc consts  --      0.5808                 1.1069                 0.8123
 IR Inten    --      0.5602                46.1898                 2.6149

                     40                     41                     42
                      A                      A                      A
 Frequencies --    674.4586               688.2045               715.1371
 Red. masses --      5.4080                 1.0790                 1.6630
 Frc consts  --      1.4494                 0.3011                 0.5011
 IR Inten    --      8.9702               101.9026                51.5913

                     43                     44                     45
                      A                      A                      A
 Frequencies --    727.5769               743.5119               781.6772
 Red. masses --      1.1005                 1.1678                 1.4285
 Frc consts  --      0.3432                 0.3804                 0.5142
 IR Inten    --    114.8709               175.3871                 2.0444

                     46                     47                     48
                      A                      A                      A
 Frequencies --    825.3085               838.8948               842.7975
 Red. masses --      1.1536                 2.1678                 1.4406
 Frc consts  --      0.4630                 0.8989                 0.6029
 IR Inten    --    111.1634                 2.9531                49.4081

                     49                     50                     51
                      A                      A                      A
 Frequencies --    870.3052               879.9612               934.5988
 Red. masses --      1.0661                 1.0855                 2.1936
 Frc consts  --      0.4758                 0.4952                 1.1289
 IR Inten    --     76.6457                38.0984                12.7796

                     52                     53                     54
                      A                      A                      A
 Frequencies --    941.2744               955.3765               983.5591
 Red. masses --      2.1241                 2.4000                 1.5855
 Frc consts  --      1.1088                 1.2906                 0.9037
 IR Inten    --     20.3239                21.5002                 2.2951

                     55                     56                     57
                      A                      A                      A
 Frequencies --    989.3255              1011.8218              1033.6944
 Red. masses --      1.3602                 1.7850                 1.3869
 Frc consts  --      0.7844                 1.0767                 0.8731
 IR Inten    --      7.3150                 8.5488                 0.4311

                     58                     59                     60
                      A                      A                      A
 Frequencies --   1040.6251              1055.0399              1075.1232
 Red. masses --      3.8795                 2.3397                 1.8451
 Frc consts  --      2.4752                 1.5344                 1.2566
 IR Inten    --     17.9854                 1.1377                16.1656

                     61                     62                     63
                      A                      A                      A
 Frequencies --   1093.5184              1118.0400              1143.2680
 Red. masses --      2.1969                 2.3286                 1.2824
 Frc consts  --      1.5478                 1.7150                 0.9876
 IR Inten    --     11.8754                 9.3423                 4.5042

                     64                     65                     66
                      A                      A                      A
 Frequencies --   1151.1691              1198.5945              1214.8481
 Red. masses --      1.5028                 1.8495                 1.3257
 Frc consts  --      1.1733                 1.5655                 1.1528
 IR Inten    --      6.0021                15.7074                 7.9109

                     67                     68                     69
                      A                      A                      A
 Frequencies --   1226.7688              1243.0321              1258.1806
 Red. masses --      1.4428                 1.6920                 1.8552
 Frc consts  --      1.2793                 1.5403                 1.7303
 IR Inten    --      5.6805                 8.3084                10.0213

                     70                     71                     72
                      A                      A                      A
 Frequencies --   1263.9018              1291.9702              1298.0903
 Red. masses --      1.7291                 1.5421                 1.4046
 Frc consts  --      1.6274                 1.5166                 1.3944
 IR Inten    --     13.0113                 3.9861                10.9909

                     73                     74                     75
                      A                      A                      A
 Frequencies --   1323.3311              1328.7269              1345.4886
 Red. masses --      1.8128                 1.3683                 1.2360
 Frc consts  --      1.8705                 1.4233                 1.3183
 IR Inten    --     13.4538                 1.5876                44.3793

                     76                     77                     78
                      A                      A                      A
 Frequencies --   1359.0656              1375.9083              1382.7587
 Red. masses --      1.3627                 1.8102                 1.5352
 Frc consts  --      1.4830                 2.0191                 1.7295
 IR Inten    --      6.2294                14.4124                 4.3189

                     79                     80                     81
                      A                      A                      A
 Frequencies --   1407.9069              1447.9137              1456.3561
 Red. masses --      1.7510                 1.3828                 1.4289
 Frc consts  --      2.0450                 1.7080                 1.7856
 IR Inten    --      7.4662                 8.5163                21.0835

                     82                     83                     84
                      A                      A                      A
 Frequencies --   1482.9349              1484.1510              1488.6113
 Red. masses --      1.0464                 1.0715                 1.0708
 Frc consts  --      1.3558                 1.3906                 1.3980
 IR Inten    --     13.7906                 6.2313                 6.1709

                     85                     86                     87
                      A                      A                      A
 Frequencies --   1506.0402              1519.3870              1527.2948
 Red. masses --      1.0919                 1.5880                 1.3704
 Frc consts  --      1.4591                 2.1599                 1.8835
 IR Inten    --     10.1434                48.9261                16.0237

                     88                     89                     90
                      A                      A                      A
 Frequencies --   1615.0424              1630.4098              1639.3620
 Red. masses --      1.1703                 1.0985                 1.9019
 Frc consts  --      1.7985                 1.7205                 3.0116
 IR Inten    --    102.6231                43.4536                 4.3339

                     91                     92                     93
                      A                      A                      A
 Frequencies --   1655.6750              1667.8457              1682.1188
 Red. masses --      1.1042                 1.1047                 1.1414
 Frc consts  --      1.7833                 1.8106                 1.9028
 IR Inten    --     64.8607                32.3939                15.8629

                     94                     95                     96
                      A                      A                      A
 Frequencies --   1707.1883              1732.3056              2389.6604
 Red. masses --      4.0212                 1.9898                 1.1384
 Frc consts  --      6.9051                 3.5181                 3.8302
 IR Inten    --      3.1622                65.2445              3453.4291

                     97                     98                     99
                      A                      A                      A
 Frequencies --   2966.5724              2995.9200              2998.8459
 Red. masses --      1.0834                 1.0512                 1.0702
 Frc consts  --      5.6177                 5.5591                 5.6703
 IR Inten    --     46.2863                36.8755                89.5532

                    100                    101                    102
                      A                      A                      A
 Frequencies --   3087.5182              3102.6164              3110.1783
 Red. masses --      1.0639                 1.0673                 1.0858
 Frc consts  --      5.9752                 6.0531                 6.1881
 IR Inten    --     15.0482                15.8932                17.0318

                    103                    104                    105
                      A                      A                      A
 Frequencies --   3117.2184              3144.3904              3152.7814
 Red. masses --      1.0903                 1.1044                 1.1041
 Frc consts  --      6.2420                 6.4335                 6.4663
 IR Inten    --     21.0803                 1.3125                13.3458

                    106                    107                    108
                      A                      A                      A
 Frequencies --   3162.2842              3210.0131              3225.5365
 Red. masses --      1.1057                 1.0925                 1.0960
 Frc consts  --      6.5145                 6.6324                 6.7183
 IR Inten    --     24.1442                 0.2924                20.2929

                    109                    110                    111
                      A                      A                      A
 Frequencies --   3243.5015              3258.1003              3281.8548
 Red. masses --      1.0924                 1.1006                 1.0684
 Frc consts  --      6.7714                 6.8836                 6.7801
 IR Inten    --      0.8845                 1.3934              1203.7398

                    112                    113                    114
                      A                      A                      A
 Frequencies --   3482.0644              3581.1793              3629.6464
 Red. masses --      1.0601                 1.0655                 1.0656
 Frc consts  --      7.5727                 8.0513                 8.2713
 IR Inten    --   1173.4275               887.9681               494.9705

                    115                    116                    117
                      A                      A                      A
 Frequencies --   3650.7037              3882.1320              3947.1345
 Red. masses --      1.0633                 1.0451                 1.0673
 Frc consts  --      8.3496                 9.2797                 9.7970
 IR Inten    --    467.7029                24.0245                88.4277

                    118                    119                    120
                      A                      A                      A
 Frequencies --   3953.5415              3956.0195              3990.1934
 Red. masses --      1.0692                 1.0693                 1.0831
 Frc consts  --      9.8462                 9.8602                10.1603
 IR Inten    --     89.4644               119.0964               110.8058

 - Thermochemistry -
 -------------------
 Temperature   298.150 Kelvin.  Pressure   1.00000 Atm.
 Atom     1 has atomic number  6 and mass  12.00000

 Molecular mass:   253.17635 amu.
 Principal axes and moments of inertia in atomic units:
                           1         2         3
     Eigenvalues --  3463.48988********************
           X            1.00000  -0.00266   0.00098
           Y            0.00266   1.00000   0.00110
           Z           -0.00098  -0.00109   1.00000
 This molecule is an asymmetric top.
 Rotational symmetry number  1.
 Warning -- assumption of classical behavior for rotation
           may cause significant error
 Rotational temperatures (Kelvin)      0.02501     0.00847     0.00748
 Rotational constants (GHZ):           0.52108     0.17645     0.15594
 Zero-point vibrational energy     962675.8 (Joules/Mol)
                                  230.08503 (Kcal/Mol)
 Warning -- explicit consideration of  37 degrees of freedom as
           vibrations may cause significant error
 Vibrational temperatures:     17.11    20.39    37.28    44.24    50.32
          (Kelvin)             68.32    79.92   101.38   112.16   124.90
                              135.33   142.99   174.86   193.54   227.01
                              244.84   256.12   294.40   302.86   320.99
                              328.37   340.02   345.69   354.58   371.48
                              380.65   407.53   450.45   508.79   577.35
                              596.32   600.08   608.89   662.55   785.40
                              791.22   836.36   914.86   933.25   970.40
                              990.17  1028.92  1046.82  1069.75  1124.66
                             1187.43  1206.98  1212.60  1252.17  1266.07
                             1344.68  1354.28  1374.57  1415.12  1423.42
                             1455.79  1487.26  1497.23  1517.97  1546.86
                             1573.33  1608.61  1644.91  1656.28  1724.51
                             1747.90  1765.05  1788.45  1810.24  1818.47
                             1858.86  1867.66  1903.98  1911.74  1935.86
                             1955.39  1979.63  1989.48  2025.66  2083.22
                             2095.37  2133.61  2135.36  2141.78  2166.86
                             2186.06  2197.44  2323.69  2345.80  2358.68
                             2382.15  2399.66  2420.19  2456.26  2492.40
                             3438.19  4268.24  4310.46  4314.67  4442.25
                             4463.97  4474.85  4484.98  4524.08  4536.15
                             4549.82  4618.49  4640.83  4666.68  4687.68
                             4721.86  5009.91  5152.52  5222.25  5252.55
                             5585.52  5679.05  5688.26  5691.83  5741.00

 Zero-point correction=                           0.366664 (Hartree/Particle)
 Thermal correction to Energy=                    0.392332
 Thermal correction to Enthalpy=                  0.393276
 Thermal correction to Gibbs Free Energy=         0.306481
 Sum of electronic and zero-point Energies=           -881.101746
 Sum of electronic and thermal Energies=              -881.076078
 Sum of electronic and thermal Enthalpies=            -881.075134
 Sum of electronic and thermal Free Energies=         -881.161929

                     E (Thermal)             CV                S
                      KCal/Mol        Cal/Mol-Kelvin    Cal/Mol-Kelvin
 Total                  246.192             88.093            182.676
 Electronic               0.000              0.000              0.000
 Translational            0.889              2.981             42.487
 Rotational               0.889              2.981             34.371
 Vibrational            244.415             82.132            105.818
 Vibration     1          0.593              1.987              7.667
 Vibration     2          0.593              1.986              7.318
 Vibration     3          0.593              1.985              6.120
 Vibration     4          0.594              1.984              5.780
 Vibration     5          0.594              1.982              5.525
 Vibration     6          0.595              1.979              4.920
 Vibration     7          0.596              1.975              4.609
 Vibration     8          0.598              1.968              4.140
 Vibration     9          0.599              1.964              3.942
 Vibration    10          0.601              1.958              3.731
 Vibration    11          0.603              1.953              3.574
 Vibration    12          0.604              1.950              3.466
 Vibration    13          0.609              1.931              3.076
 Vibration    14          0.613              1.919              2.880
 Vibration    15          0.621              1.894              2.576
 Vibration    16          0.625              1.879              2.434
 Vibration    17          0.628              1.869              2.349
 Vibration    18          0.640              1.833              2.091
 Vibration    19          0.643              1.825              2.039
 Vibration    20          0.649              1.806              1.934
 Vibration    21          0.651              1.798              1.893
 Vibration    22          0.655              1.785              1.830
 Vibration    23          0.657              1.779              1.801
 Vibration    24          0.661              1.769              1.756
 Vibration    25          0.667              1.749              1.674
 Vibration    26          0.671              1.738              1.631
 Vibration    27          0.682              1.705              1.514
 Vibration    28          0.701              1.649              1.346
 Vibration    29          0.730              1.568              1.150
 Vibration    30          0.767              1.467              0.958
 Vibration    31          0.778              1.439              0.911
 Vibration    32          0.780              1.433              0.902
 Vibration    33          0.785              1.420              0.881
 Vibration    34          0.818              1.338              0.765
 Vibration    35          0.901              1.149              0.553
 Vibration    36          0.905              1.140              0.544
 Vibration    37          0.938              1.072              0.483

 Optimization completed on the basis of negligible forces.
    -- Stationary point found.
 Normal termination of Gaussian 16 at Tue Dec  6 16:21:00 2022.
