 Gaussian 16, Revision A.03,
 Gaussian 16:  ES64L-G16RevA.03 25-Dec-2016

 -----------------------------
 # wB97XD/aug-cc-pVDZ opt freq
 -----------------------------

 ----
 blah
 ----
 Symbolic Z-matrix:
 Charge =  1 Multiplicity = 1

 SCF Done:  E(RwB97XD) =  -881.459348182     A.U. after   14 cycles
 SCF Done:  E(RwB97XD) =  -881.454449881     A.U. after   15 cycles
 SCF Done:  E(RwB97XD) =  -881.462573673     A.U. after   13 cycles
 SCF Done:  E(RwB97XD) =  -881.461540483     A.U. after   15 cycles
 SCF Done:  E(RwB97XD) =  -881.464069643     A.U. after   13 cycles
 SCF Done:  E(RwB97XD) =  -881.461773842     A.U. after   14 cycles
 SCF Done:  E(RwB97XD) =  -881.464243505     A.U. after   12 cycles
 SCF Done:  E(RwB97XD) =  -881.464794039     A.U. after   12 cycles
 SCF Done:  E(RwB97XD) =  -881.465801574     A.U. after   13 cycles
 SCF Done:  E(RwB97XD) =  -881.465738359     A.U. after   15 cycles
 SCF Done:  E(RwB97XD) =  -881.476332296     A.U. after    9 cycles
 SCF Done:  E(RwB97XD) =  -881.476332452     A.U. after    8 cycles
 SCF Done:  E(RwB97XD) =  -881.476332573     A.U. after    8 cycles
 SCF Done:  E(RwB97XD) =  -881.476332674     A.U. after    8 cycles
 SCF Done:  E(RwB97XD) =  -881.476332750     A.U. after    7 cycles
 SCF Done:  E(RwB97XD) =  -881.476332819     A.U. after    8 cycles
 SCF Done:  E(RwB97XD) =  -881.476332868     A.U. after    7 cycles
 SCF Done:  E(RwB97XD) =  -881.476332905     A.U. after    7 cycles
 SCF Done:  E(RwB97XD) =  -881.476332924     A.U. after    7 cycles
 Optimization completed.
    -- Stationary point found.
 Normal termination of Gaussian 16 at Fri Dec  9 17:45:04 2022.

 ----------------------------------------------------------------------
 #N Geom=AllCheck Guess=TCheck SCRF=Check GenChk RwB97XD/Aug-CC-pVDZ Fr
 eq
 ----------------------------------------------------------------------

 Structure from the checkpoint file:  "/gscratch/scrubbed/gds001/Gau-22165.chk"
 ----
 blah
 ----
 Charge =  1 Multiplicity = 1

                         Standard orientation:
 ---------------------------------------------------------------------
 Center     Atomic      Atomic             Coordinates (Angstroms)
 Number     Number       Type             X           Y           Z
 ---------------------------------------------------------------------
      1          6           0        0.873223    1.163959   -0.671125
      2          6           0        2.016523    0.487654   -0.245549
      3          6           0        3.071036    1.250516    0.254904
      4          6           0        2.931593    2.633907    0.315190
      5          6           0        1.729386    3.202777   -0.100756
      6          7           0        0.709769    2.483731   -0.583004
      7          6           0        2.058218   -1.018108   -0.289095
      8          6           0        1.586722   -1.696481   -1.600256
      9          6           0        0.426590   -2.625397   -1.198269
     10          6           0        0.706397   -2.924589    0.266576
     11          7           0        1.151682   -1.598573    0.783359
     12          8           0       -1.170205   -0.353858    1.273054
     13          1           0        1.531159   -3.637117    0.398747
     14          1           0        0.387315   -3.537732   -1.800472
     15          1           0       -0.534860   -2.104357   -1.297360
     16          1           0        1.281695   -0.958837   -2.347496
     17          1           0        2.418151   -2.268044   -2.026519
     18          1           0       -0.159710   -3.258916    0.846502
     19          1           0        3.067810   -1.359571   -0.029524
     20          1           0        0.032109    0.606114   -1.087272
     21          1           0        1.576815    4.280890   -0.043041
     22          1           0        3.735027    3.265121    0.689982
     23          1           0        3.992999    0.773309    0.590795
     24          6           0        1.751214   -1.621073    2.133280
     25          1           0        0.268194   -1.020059    0.862861
     26          1           0       -2.009446   -0.840654    1.209840
     27          1           0       -1.383802    0.498900    0.845510
     28          8           0       -2.022894    1.763015   -0.310007
     29          1           0       -1.386863    2.485404   -0.425850
     30          1           0       -2.854944    2.074462    0.094843
     31          1           0        1.009226   -2.000150    2.841944
     32          1           0        2.027796   -0.599871    2.412557
     33          1           0        2.635483   -2.267306    2.127709
     34          8           0       -2.399939   -0.430215   -1.843419
     35          1           0       -2.289163    0.470450   -1.471741
     36          1           0       -2.766986   -0.314521   -2.723459
     37          8           0       -3.708133   -1.175897    0.422051
     38          1           0       -4.281928   -1.944732    0.458395
     39          1           0       -3.404505   -1.082530   -0.505403
     40          8           0       -4.347442    1.564982    0.944615
     41          1           0       -5.248865    1.882344    1.025061
     42          1           0       -4.389376    0.598096    0.871144
 ---------------------------------------------------------------------

 SCF Done:  E(RwB97XD) =  -881.476332924     A.U. after    1 cycles

 The electronic state is 1-A.
 Alpha  occ. eigenvalues --  -19.39533 -19.38800 -19.38408 -19.38194 -19.37272
 Alpha  occ. eigenvalues --  -14.67807 -14.57634 -10.49155 -10.47787 -10.47401
 Alpha  occ. eigenvalues --  -10.45842 -10.45501 -10.44508 -10.44452 -10.43295
 Alpha  occ. eigenvalues --  -10.42964 -10.42861  -1.24881  -1.24363  -1.23136
 Alpha  occ. eigenvalues --   -1.22595  -1.21985  -1.20971  -1.17428  -1.05761
 Alpha  occ. eigenvalues --   -1.03996  -1.00692  -0.96182  -0.93677  -0.87776
 Alpha  occ. eigenvalues --   -0.85216  -0.84820  -0.82332  -0.77452  -0.75881
 Alpha  occ. eigenvalues --   -0.74959  -0.74165  -0.74070  -0.73001  -0.72542
 Alpha  occ. eigenvalues --   -0.72128  -0.70902  -0.69791  -0.67576  -0.66519
 Alpha  occ. eigenvalues --   -0.64764  -0.64477  -0.63417  -0.62293  -0.61407
 Alpha  occ. eigenvalues --   -0.61325  -0.61190  -0.60460  -0.60106  -0.59467
 Alpha  occ. eigenvalues --   -0.58466  -0.58272  -0.57006  -0.56214  -0.55711
 Alpha  occ. eigenvalues --   -0.54818  -0.53074  -0.52386  -0.52090  -0.51688
 Alpha  occ. eigenvalues --   -0.50458  -0.49165  -0.46988  -0.46049
 Alpha virt. eigenvalues --   -0.08911  -0.08150  -0.06478  -0.05754  -0.04658
 Alpha virt. eigenvalues --   -0.04636  -0.03398  -0.03161  -0.03041  -0.02664
 Alpha virt. eigenvalues --   -0.02113  -0.01564  -0.01225  -0.01004  -0.00655

 Mulliken charges:
               1
     1  C    0.512464
     2  C    1.246527
     3  C    1.060002
     4  C    0.618349
     5  C    0.248798
     6  N   -0.290991
     7  C    0.759651
     8  C    1.174808
     9  C    1.035168
    10  C    1.420065
    11  N   -1.094994
    12  O   -0.639566
    13  H   -0.387420
    14  H   -0.348397
    15  H   -0.311308
    16  H   -0.457753
    17  H   -0.431870
    18  H   -0.451190
    19  H   -0.805221
    20  H   -1.094287
    21  H   -0.581024
    22  H   -0.598103
    23  H   -0.899340
    24  C    1.086953
    25  H    0.064943
    26  H    0.375141
    27  H    0.361762
    28  O   -0.844801
    29  H    0.325185
    30  H    0.323302
    31  H   -0.147295
    32  H   -0.065047
    33  H   -0.220917
    34  O   -0.501048
    35  H    0.361295
    36  H    0.218458
    37  O   -0.627069
    38  H    0.267268
    39  H    0.295383
    40  O   -0.286891
    41  H    0.181325
    42  H    0.147683
 Sum of Mulliken charges =   1.00000

 Dipole moment (field-independent basis, Debye):
    X=              0.9399    Y=             -4.1553    Z=              0.3357  Tot=              4.2735
 Quadrupole moment (field-independent basis, Debye-Ang):
   XX=            -48.7118   YY=            -70.2029   ZZ=            -94.4930
   XY=              0.3087   XZ=              8.4373   YZ=             -0.9914

  Exact polarizability: 177.150   6.429 189.600   8.919   3.074 139.771
 Approx polarizability: 189.685   1.845 200.263  12.258   3.299 159.113

                      1                      2                      3
                      A                      A                      A
 Frequencies --     25.8750                38.8088                47.8956
 Red. masses --      4.4252                 6.1098                 4.2324
 Frc consts  --      0.0017                 0.0054                 0.0057
 IR Inten    --      0.4546                 0.2515                 2.7430

                      4                      5                      6
                      A                      A                      A
 Frequencies --     53.9635                59.6159                68.7507
 Red. masses --      4.2447                 4.7858                 4.2767
 Frc consts  --      0.0073                 0.0100                 0.0119
 IR Inten    --      0.5379                 0.0950                 3.0688

                      7                      8                      9
                      A                      A                      A
 Frequencies --     78.8335                95.3860               111.3871
 Red. masses --      4.0589                 5.3850                 4.7501
 Frc consts  --      0.0149                 0.0289                 0.0347
 IR Inten    --      4.3978                 1.3455                 2.8896

                     10                     11                     12
                      A                      A                      A
 Frequencies --    117.2775               123.3826               152.8430
 Red. masses --      3.4141                 4.1900                 2.4431
 Frc consts  --      0.0277                 0.0376                 0.0336
 IR Inten    --     13.2045                18.2119                35.2600

                     13                     14                     15
                      A                      A                      A
 Frequencies --    158.7920               181.5771               202.1735
 Red. masses --      1.7678                 5.5903                 5.3004
 Frc consts  --      0.0263                 0.1086                 0.1276
 IR Inten    --     66.0693                 8.0006                 2.2196

                     16                     17                     18
                      A                      A                      A
 Frequencies --    208.5975               232.1478               240.2716
 Red. masses --      3.3106                 1.4168                 5.4150
 Frc consts  --      0.0849                 0.0450                 0.1842
 IR Inten    --      4.6199                 1.7798                14.1656

                     19                     20                     21
                      A                      A                      A
 Frequencies --    248.1568               257.9611               262.1084
 Red. masses --      1.4025                 4.2622                 3.2913
 Frc consts  --      0.0509                 0.1671                 0.1332
 IR Inten    --      1.1885                46.3506                 5.7630

                     22                     23                     24
                      A                      A                      A
 Frequencies --    282.6152               307.8203               333.6634
 Red. masses --      4.6639                 2.8737                 1.2471
 Frc consts  --      0.2195                 0.1604                 0.0818
 IR Inten    --     26.4434                 3.3233                 6.1130

                     25                     26                     27
                      A                      A                      A
 Frequencies --    340.8862               354.4029               380.3940
 Red. masses --      3.8891                 1.1005                 2.9476
 Frc consts  --      0.2663                 0.0814                 0.2513
 IR Inten    --      1.1678                32.0755                 1.9541

                     28                     29                     30
                      A                      A                      A
 Frequencies --    401.1487               418.8279               442.9451
 Red. masses --      1.0749                 2.9960                 1.9614
 Frc consts  --      0.1019                 0.3096                 0.2267
 IR Inten    --     38.0667                13.3277                13.6340

                     31                     32                     33
                      A                      A                      A
 Frequencies --    445.7610               482.1266               524.4785
 Red. masses --      1.2940                 1.0654                 1.0923
 Frc consts  --      0.1515                 0.1459                 0.1770
 IR Inten    --    159.1900                88.5417               196.1056

                     34                     35                     36
                      A                      A                      A
 Frequencies --    543.6769               568.1109               575.7000
 Red. masses --      3.1687                 2.6059                 1.1656
 Frc consts  --      0.5518                 0.4955                 0.2276
 IR Inten    --     15.6315                 3.6835                87.0436

                     37                     38                     39
                      A                      A                      A
 Frequencies --    591.4209               627.1571               635.9343
 Red. masses --      1.1112                 2.7385                 1.5707
 Frc consts  --      0.2290                 0.6346                 0.3743
 IR Inten    --    112.6797                 9.8703                43.0286

                     40                     41                     42
                      A                      A                      A
 Frequencies --    638.3009               651.2466               661.2042
 Red. masses --      1.9707                 2.2702                 1.4159
 Frc consts  --      0.4731                 0.5673                 0.3647
 IR Inten    --      7.2411                22.2658                50.1371

                     43                     44                     45
                      A                      A                      A
 Frequencies --    724.6489               741.7692               787.3406
 Red. masses --      1.0711                 1.8919                 1.8542
 Frc consts  --      0.3314                 0.6133                 0.6772
 IR Inten    --    117.5394                42.8517                13.4035

                     46                     47                     48
                      A                      A                      A
 Frequencies --    805.4928               830.9442               853.4198
 Red. masses --      1.2085                 1.6754                 1.1313
 Frc consts  --      0.4620                 0.6816                 0.4855
 IR Inten    --     51.5898                10.6476               145.7921

                     49                     50                     51
                      A                      A                      A
 Frequencies --    856.6380               914.1647               918.1632
 Red. masses --      1.7640                 2.8155                 1.5960
 Frc consts  --      0.7627                 1.3863                 0.7927
 IR Inten    --      8.2347                16.0546                23.6674

                     52                     53                     54
                      A                      A                      A
 Frequencies --    923.1780               948.2511               976.3773
 Red. masses --      1.1639                 2.4123                 1.5794
 Frc consts  --      0.5844                 1.2780                 0.8871
 IR Inten    --    168.9360                 4.0799                 2.4371

                     55                     56                     57
                      A                      A                      A
 Frequencies --    979.3834               997.8619              1029.2559
 Red. masses --      1.5822                 1.4901                 1.4384
 Frc consts  --      0.8942                 0.8742                 0.8978
 IR Inten    --      2.7254                 2.9558                 0.3634

                     58                     59                     60
                      A                      A                      A
 Frequencies --   1038.3124              1052.6322              1069.6842
 Red. masses --      1.9595                 4.7839                 2.5248
 Frc consts  --      1.2446                 3.1231                 1.7021
 IR Inten    --     22.0399                 4.8841                 2.8711

                     61                     62                     63
                      A                      A                      A
 Frequencies --   1089.6938              1092.3817              1127.0455
 Red. masses --      1.9854                 1.9539                 1.3445
 Frc consts  --      1.3890                 1.3737                 1.0062
 IR Inten    --      0.1271                 0.7683                 4.6713

                     64                     65                     66
                      A                      A                      A
 Frequencies --   1148.4022              1152.2569              1203.3196
 Red. masses --      2.1344                 1.3937                 1.4424
 Frc consts  --      1.6585                 1.0902                 1.2305
 IR Inten    --     13.8085                 5.5204                 6.2953

                     67                     68                     69
                      A                      A                      A
 Frequencies --   1211.7397              1242.7828              1243.0334
 Red. masses --      1.9358                 1.5315                 1.5586
 Frc consts  --      1.6747                 1.3936                 1.4189
 IR Inten    --      5.4817                 7.6877                 6.0381

                     70                     71                     72
                      A                      A                      A
 Frequencies --   1259.0856              1273.2603              1309.7826
 Red. masses --      1.6884                 1.2396                 4.2566
 Frc consts  --      1.5770                 1.1841                 4.3024
 IR Inten    --      3.1536                 0.9225                 0.0904

                     73                     74                     75
                      A                      A                      A
 Frequencies --   1321.1347              1356.5297              1361.5212
 Red. masses --      1.3373                 1.3221                 1.3406
 Frc consts  --      1.3753                 1.4334                 1.4641
 IR Inten    --      0.6325                 1.2875                 1.0350

                     76                     77                     78
                      A                      A                      A
 Frequencies --   1376.5760              1380.9994              1394.6808
 Red. masses --      1.6406                 1.3946                 1.4279
 Frc consts  --      1.8317                 1.5671                 1.6364
 IR Inten    --      6.0213                 0.1557                 2.2549

                     79                     80                     81
                      A                      A                      A
 Frequencies --   1453.3218              1479.4154              1482.0249
 Red. masses --      1.1804                 2.0537                 1.0977
 Frc consts  --      1.4689                 2.6483                 1.4205
 IR Inten    --      2.7455                21.2716                14.3678

                     82                     83                     84
                      A                      A                      A
 Frequencies --   1485.1755              1494.6871              1499.9058
 Red. masses --      1.0641                 1.0908                 1.0915
 Frc consts  --      1.3829                 1.4359                 1.4468
 IR Inten    --      2.4283                 4.7924                18.6366

                     85                     86                     87
                      A                      A                      A
 Frequencies --   1515.5817              1534.0151              1561.5708
 Red. masses --      1.1486                 2.1152                 1.1304
 Frc consts  --      1.5544                 2.9327                 1.6241
 IR Inten    --     12.4034                 3.6024                52.5276

                     88                     89                     90
                      A                      A                      A
 Frequencies --   1566.0565              1577.1202              1635.4192
 Red. masses --      1.1092                 1.1191                 1.0780
 Frc consts  --      1.6028                 1.6401                 1.6987
 IR Inten    --    101.6811                44.9013               114.8766

                     91                     92                     93
                      A                      A                      A
 Frequencies --   1646.8206              1661.3205              1661.9945
 Red. masses --      1.0733                 5.9261                 1.0698
 Frc consts  --      1.7150                 9.6366                 1.7411
 IR Inten    --     25.4121                13.0962                66.0853

                     94                     95                     96
                      A                      A                      A
 Frequencies --   1684.1093              1726.2860              2874.8865
 Red. masses --      5.8221                 1.0726                 1.0899
 Frc consts  --      9.7290                 1.8833                 5.3073
 IR Inten    --     19.6050               118.0864              1132.3350

                     97                     98                     99
                      A                      A                      A
 Frequencies --   3078.2153              3082.5135              3090.7483
 Red. masses --      1.0342                 1.0688                 1.0615
 Frc consts  --      5.7738                 5.9837                 5.9744
 IR Inten    --      2.6115                 4.4309                 4.5692

                    100                    101                    102
                      A                      A                      A
 Frequencies --   3101.2365              3111.9162              3160.5827
 Red. masses --      1.0816                 1.0685                 1.1020
 Frc consts  --      6.1289                 6.0964                 6.4860
 IR Inten    --      5.0090                 7.0445                 4.0832

                    103                    104                    105
                      A                      A                      A
 Frequencies --   3166.2765              3172.1313              3181.2448
 Red. masses --      1.1060                 1.1062                 1.1073
 Frc consts  --      6.5327                 6.5583                 6.6027
 IR Inten    --      4.2649                 6.9861                 1.2333

                    106                    107                    108
                      A                      A                      A
 Frequencies --   3187.9644              3191.2457              3198.0704
 Red. masses --      1.0918                 1.1066                 1.0915
 Frc consts  --      6.5376                 6.6398                 6.5772
 IR Inten    --      3.5380                 0.8890                 3.1435

                    109                    110                    111
                      A                      A                      A
 Frequencies --   3208.3598              3236.5969              3486.6140
 Red. masses --      1.0924                 1.0982                 1.0634
 Frc consts  --      6.6250                 6.7783                 7.6166
 IR Inten    --      5.0007                 1.8361               243.6238

                    112                    113                    114
                      A                      A                      A
 Frequencies --   3557.9468              3568.1537              3638.2939
 Red. masses --      1.0609                 1.0587                 1.0544
 Frc consts  --      7.9123                 7.9416                 8.2236
 IR Inten    --    632.0862               429.4989               286.4559

                    115                    116                    117
                      A                      A                      A
 Frequencies --   3703.5350              3733.5027              3764.7540
 Red. masses --      1.0660                 1.0603                 1.0785
 Frc consts  --      8.6146                 8.7077                 9.0061
 IR Inten    --    382.7829               579.9212               559.3862

                    118                    119                    120
                      A                      A                      A
 Frequencies --   3934.2537              3942.5101              3963.2820
 Red. masses --      1.0682                 1.0689                 1.0729
 Frc consts  --      9.7413                 9.7890                 9.9295
 IR Inten    --    104.1419               113.1782               136.2504

 - Thermochemistry -
 -------------------
 Temperature   298.150 Kelvin.  Pressure   1.00000 Atm.
 Atom     1 has atomic number  6 and mass  12.00000

 Molecular mass:   253.17635 amu.
 Principal axes and moments of inertia in atomic units:
                           1         2         3
     Eigenvalues --  4043.277655753.089427824.64638
           X            0.99963  -0.02581   0.00843
           Y            0.02579   0.99966   0.00251
           Z           -0.00850  -0.00229   0.99996
 This molecule is an asymmetric top.
 Rotational symmetry number  1.
 Warning -- assumption of classical behavior for rotation
           may cause significant error
 Rotational temperatures (Kelvin)      0.02142     0.01506     0.01107
 Rotational constants (GHZ):           0.44636     0.31370     0.23065
 Zero-point vibrational energy     975943.6 (Joules/Mol)
                                  233.25612 (Kcal/Mol)
 Warning -- explicit consideration of  37 degrees of freedom as
           vibrations may cause significant error
 Vibrational temperatures:     37.23    55.84    68.91    77.64    85.77
          (Kelvin)             98.92   113.42   137.24   160.26   168.74
                              177.52   219.91   228.47   261.25   290.88
                              300.13   334.01   345.70   357.04   371.15
                              377.12   406.62   442.88   480.07   490.46
                              509.91   547.30   577.16   602.60   637.30
                              641.35   693.67   754.61   782.23   817.38
                              828.30   850.92   902.34   914.97   918.37
                              937.00   951.33  1042.61  1067.24  1132.81
                             1158.92  1195.54  1227.88  1232.51  1315.28
                             1321.03  1328.25  1364.32  1404.79  1409.11
                             1435.70  1480.87  1493.90  1514.50  1539.04
                             1567.83  1571.69  1621.57  1652.29  1657.84
                             1731.31  1743.42  1788.09  1788.45  1811.54
                             1831.94  1884.49  1900.82  1951.74  1958.93
                             1980.59  1986.95  2006.63  2091.01  2128.55
                             2132.30  2136.84  2150.52  2158.03  2180.58
                             2207.11  2246.75  2253.21  2269.12  2353.00
                             2369.41  2390.27  2391.24  2423.06  2483.74
                             4136.32  4428.87  4435.05  4446.90  4461.99
                             4477.35  4547.37  4555.57  4563.99  4577.10
                             4586.77  4591.49  4601.31  4616.11  4656.74
                             5016.46  5119.09  5133.78  5234.69  5328.56
                             5371.68  5416.64  5660.51  5672.39  5702.28

 Zero-point correction=                           0.371717 (Hartree/Particle)
 Thermal correction to Energy=                    0.395200
 Thermal correction to Enthalpy=                  0.396144
 Thermal correction to Gibbs Free Energy=         0.318851
 Sum of electronic and zero-point Energies=           -881.104616
 Sum of electronic and thermal Energies=              -881.081133
 Sum of electronic and thermal Enthalpies=            -881.080189
 Sum of electronic and thermal Free Energies=         -881.157482

                     E (Thermal)             CV                S
                      KCal/Mol        Cal/Mol-Kelvin    Cal/Mol-Kelvin
 Total                  247.992             85.810            162.678
 Electronic               0.000              0.000              0.000
 Translational            0.889              2.981             42.487
 Rotational               0.889              2.981             33.564
 Vibrational            246.214             79.848             86.626
 Vibration     1          0.593              1.985              6.123
 Vibration     2          0.594              1.981              5.319
 Vibration     3          0.595              1.978              4.902
 Vibration     4          0.596              1.976              4.667
 Vibration     5          0.597              1.974              4.470
 Vibration     6          0.598              1.969              4.189
 Vibration     7          0.600              1.963              3.920
 Vibration     8          0.603              1.952              3.546
 Vibration     9          0.607              1.940              3.245
 Vibration    10          0.608              1.935              3.145
 Vibration    11          0.610              1.930              3.047
 Vibration    12          0.619              1.900              2.637
 Vibration    13          0.621              1.893              2.564
 Vibration    14          0.630              1.865              2.312
 Vibration    15          0.639              1.837              2.113
 Vibration    16          0.642              1.828              2.056
 Vibration    17          0.653              1.792              1.862
 Vibration    18          0.657              1.779              1.801
 Vibration    19          0.662              1.766              1.744
 Vibration    20          0.667              1.749              1.676
 Vibration    21          0.669              1.742              1.648
 Vibration    22          0.682              1.706              1.518
 Vibration    23          0.698              1.659              1.374
 Vibration    24          0.715              1.608              1.242
 Vibration    25          0.720              1.594              1.208
 Vibration    26          0.730              1.566              1.147
 Vibration    27          0.750              1.512              1.038
 Vibration    28          0.767              1.468              0.958
 Vibration    29          0.782              1.429              0.896
 Vibration    30          0.803              1.376              0.817
 Vibration    31          0.805              1.370              0.809
 Vibration    32          0.838              1.290              0.704
 Vibration    33          0.879              1.196              0.600
 Vibration    34          0.899              1.154              0.557
 Vibration    35          0.924              1.100              0.508
 Vibration    36          0.932              1.084              0.493
 Vibration    37          0.949              1.050              0.465

                           ! Non-Optimized Parameters !
 Normal termination of Gaussian 16 at Fri Dec  9 19:19:07 2022.
