 Gaussian 16, Revision A.03,
 Gaussian 16:  ES64L-G16RevA.03 25-Dec-2016

 -----------------------------
 # wB97XD/aug-cc-pVDZ opt freq
 -----------------------------

 ----
 blah
 ----
 Symbolic Z-matrix:
 Charge =  1 Multiplicity = 1

 SCF Done:  E(RwB97XD) =  -881.469092903     A.U. after   16 cycles
 SCF Done:  E(RwB97XD) =  -881.470140705     A.U. after   12 cycles
 SCF Done:  E(RwB97XD) =  -881.461825398     A.U. after   17 cycles
 SCF Done:  E(RwB97XD) =  -881.470329120     A.U. after   13 cycles
 SCF Done:  E(RwB97XD) =  -881.470584804     A.U. after   13 cycles
 SCF Done:  E(RwB97XD) =  -881.470742096     A.U. after   12 cycles
 SCF Done:  E(RwB97XD) =  -881.470887337     A.U. after   12 cycles
 SCF Done:  E(RwB97XD) =  -881.470977057     A.U. after   11 cycles
 SCF Done:  E(RwB97XD) =  -881.471037203     A.U. after   10 cycles
 SCF Done:  E(RwB97XD) =  -881.471071832     A.U. after   10 cycles
 SCF Done:  E(RwB97XD) =  -881.471434517     A.U. after   10 cycles
 SCF Done:  E(RwB97XD) =  -881.471438486     A.U. after   10 cycles
 SCF Done:  E(RwB97XD) =  -881.471440949     A.U. after   10 cycles
 SCF Done:  E(RwB97XD) =  -881.471441380     A.U. after    8 cycles
 SCF Done:  E(RwB97XD) =  -881.471441854     A.U. after   10 cycles
 SCF Done:  E(RwB97XD) =  -881.471442093     A.U. after    9 cycles
 SCF Done:  E(RwB97XD) =  -881.471442195     A.U. after    8 cycles
 SCF Done:  E(RwB97XD) =  -881.471442238     A.U. after    7 cycles
 SCF Done:  E(RwB97XD) =  -881.471442266     A.U. after    7 cycles
 Optimization completed.
    -- Stationary point found.
 Normal termination of Gaussian 16 at Fri Dec  9 16:26:33 2022.

 ----------------------------------------------------------------------
 #N Geom=AllCheck Guess=TCheck SCRF=Check GenChk RwB97XD/Aug-CC-pVDZ Fr
 eq
 ----------------------------------------------------------------------

 Structure from the checkpoint file:  "/gscratch/scrubbed/gds001/Gau-6442.chk"
 ----
 blah
 ----
 Charge =  1 Multiplicity = 1

                         Standard orientation:
 ---------------------------------------------------------------------
 Center     Atomic      Atomic             Coordinates (Angstroms)
 Number     Number       Type             X           Y           Z
 ---------------------------------------------------------------------
      1          6           0        1.692509    2.289027    0.710628
      2          6           0        1.406890    1.105019    0.030350
      3          6           0        0.227834    1.062063   -0.702163
      4          7           0       -0.590833    2.118790   -0.739503
      5          6           0       -0.340231    3.260122   -0.083277
      6          6           0        0.822284    3.377723    0.651975
      7          6           0        2.325754   -0.091185    0.089256
      8          7           0        1.649023   -1.309630    0.555163
      9          6           0        2.630232   -2.370644    0.287612
     10          6           0        3.175673   -2.035372   -1.106985
     11          6           0        2.931912   -0.514651   -1.260960
     12          8           0       -2.941284    1.376742   -1.724935
     13          8           0       -2.830451   -0.762329   -0.109588
     14          8           0       -0.556205   -1.987008   -0.969398
     15          1           0        2.150043   -3.354863    0.351756
     16          1           0        4.235090   -2.296666   -1.192419
     17          1           0        2.637389   -2.590820   -1.882985
     18          1           0        3.846086    0.048878   -1.474774
     19          1           0        2.224238   -0.312448   -2.074083
     20          1           0        3.436705   -2.340735    1.043060
     21          1           0        3.146344    0.156095    0.791057
     22          1           0       -0.102306    0.184791   -1.255805
     23          1           0       -1.089081    4.043410   -0.162885
     24          1           0        1.034946    4.301215    1.184613
     25          1           0        2.604197    2.360324    1.304230
     26          6           0        1.222845   -1.247315    1.950364
     27          1           0       -1.504052    1.983087   -1.238068
     28          1           0        0.243919   -1.809316   -0.405744
     29          1           0       -0.481867   -2.885155   -1.298385
     30          1           0       -3.066997    0.539364   -1.222879
     31          1           0       -3.303687    1.250207   -2.604017
     32          1           0       -3.576458   -1.343825    0.124000
     33          1           0       -2.094304   -1.341675   -0.395820
     34          1           0       -2.114954    0.281892    1.254028
     35          8           0       -1.559276    0.875118    1.791018
     36          1           0       -2.036779    1.001527    2.613454
     37          1           0        0.776569   -2.208292    2.232070
     38          1           0        0.462831   -0.466196    2.075849
     39          1           0        2.075167   -1.047859    2.625396
     40          8           0       -4.936423   -2.441591    0.526646
     41          1           0       -5.181614   -2.733143    1.408495
     42          1           0       -5.713849   -2.580116   -0.020509
 ---------------------------------------------------------------------

 SCF Done:  E(RwB97XD) =  -881.471442266     A.U. after    1 cycles

 The electronic state is 1-A.
 Alpha  occ. eigenvalues --  -19.39918 -19.38624 -19.37970 -19.37426 -19.35904
 Alpha  occ. eigenvalues --  -14.66199 -14.57327 -10.49705 -10.49324 -10.46534
 Alpha  occ. eigenvalues --  -10.45969 -10.45575 -10.45537 -10.42844 -10.41692
 Alpha  occ. eigenvalues --  -10.40908 -10.40105  -1.24757  -1.24309  -1.23088
 Alpha  occ. eigenvalues --   -1.22379  -1.21144  -1.19866  -1.16706  -1.07093
 Alpha  occ. eigenvalues --   -1.03477  -0.99802  -0.95105  -0.89461  -0.88734
 Alpha  occ. eigenvalues --   -0.87731  -0.81581  -0.79102  -0.78828  -0.74672
 Alpha  occ. eigenvalues --   -0.74619  -0.73989  -0.73629  -0.73162  -0.72225
 Alpha  occ. eigenvalues --   -0.71219  -0.70174  -0.68805  -0.67651  -0.66748
 Alpha  occ. eigenvalues --   -0.64774  -0.63717  -0.63129  -0.62915  -0.61501
 Alpha  occ. eigenvalues --   -0.60723  -0.59218  -0.58205  -0.57928  -0.57651
 Alpha  occ. eigenvalues --   -0.56377  -0.56097  -0.55583  -0.54828  -0.53274
 Alpha  occ. eigenvalues --   -0.52897  -0.52404  -0.52130  -0.51684  -0.51447
 Alpha  occ. eigenvalues --   -0.50982  -0.49249  -0.47899  -0.43745
 Alpha virt. eigenvalues --   -0.12535  -0.09728  -0.06183  -0.05047  -0.04583
 Alpha virt. eigenvalues --   -0.04457  -0.03595  -0.03020  -0.02816  -0.02484
 Alpha virt. eigenvalues --   -0.02072  -0.01242  -0.00897  -0.00853  -0.00309

 Mulliken charges:
               1
     1  C    1.154873
     2  C    0.720317
     3  C    0.997182
     4  N   -0.046611
     5  C    0.691346
     6  C    0.477332
     7  C    1.355303
     8  N   -1.491800
     9  C    1.277366
    10  C    0.804551
    11  C    1.059530
    12  O   -0.434880
    13  O   -0.824308
    14  O   -0.418343
    15  H   -0.564796
    16  H   -0.278759
    17  H   -0.287442
    18  H   -0.522621
    19  H   -0.292505
    20  H   -0.551948
    21  H   -0.832773
    22  H   -1.327863
    23  H   -0.662836
    24  H   -0.574633
    25  H   -0.936849
    26  C    1.165547
    27  H    0.040928
    28  H    0.541454
    29  H    0.153862
    30  H    0.301778
    31  H    0.169221
    32  H    0.293158
    33  H    0.415315
    34  H    0.300467
    35  O   -0.418514
    36  H    0.176756
    37  H   -0.218642
    38  H   -0.228460
    39  H   -0.144121
    40  O   -0.311161
    41  H    0.136895
    42  H    0.136688
 Sum of Mulliken charges =   1.00000

 Dipole moment (field-independent basis, Debye):
    X=             -2.5928    Y=              0.2559    Z=              0.0933  Tot=              2.6070
 Quadrupole moment (field-independent basis, Debye-Ang):
   XX=            -46.2833   YY=            -63.0970   ZZ=            -87.9015
   XY=             13.7164   XZ=              1.0549   YZ=              0.5578

  Exact polarizability: 178.558 -11.628 187.098   8.364   7.952 146.897
 Approx polarizability: 187.467  -6.920 195.049  16.011  12.335 169.430

                      1                      2                      3
                      A                      A                      A
 Frequencies --     26.4622                29.7493                41.7235
 Red. masses --      4.3413                 4.8628                 4.0029
 Frc consts  --      0.0018                 0.0025                 0.0041
 IR Inten    --      1.1863                 0.6104                 0.7565

                      4                      5                      6
                      A                      A                      A
 Frequencies --     50.9691                57.7524                61.2235
 Red. masses --      4.5513                 3.9996                 1.6206
 Frc consts  --      0.0070                 0.0079                 0.0036
 IR Inten    --      1.2221                 0.6738                 3.7829

                      7                      8                      9
                      A                      A                      A
 Frequencies --     68.2361                70.2770                80.3387
 Red. masses --      1.9563                 4.2409                 2.7866
 Frc consts  --      0.0054                 0.0123                 0.0106
 IR Inten    --      1.9421                 0.9111                 0.7277

                     10                     11                     12
                      A                      A                      A
 Frequencies --     88.6486               105.2051               116.6751
 Red. masses --      5.2551                 4.6032                 4.2491
 Frc consts  --      0.0243                 0.0300                 0.0341
 IR Inten    --      3.6947                 2.3082                 2.0591

                     13                     14                     15
                      A                      A                      A
 Frequencies --    138.2917               155.8260               163.4622
 Red. masses --      4.2983                 1.9295                 1.8847
 Frc consts  --      0.0484                 0.0276                 0.0297
 IR Inten    --      4.1144                50.7931                56.0456

                     16                     17                     18
                      A                      A                      A
 Frequencies --    164.3717               186.8418               210.0761
 Red. masses --      2.2178                 4.4801                 2.9293
 Frc consts  --      0.0353                 0.0921                 0.0762
 IR Inten    --     83.3178                26.9797                 3.0827

                     19                     20                     21
                      A                      A                      A
 Frequencies --    214.2650               219.5110               249.3776
 Red. masses --      2.3937                 1.3317                 1.9237
 Frc consts  --      0.0647                 0.0378                 0.0705
 IR Inten    --     32.8580                40.9119                41.6529

                     22                     23                     24
                      A                      A                      A
 Frequencies --    250.2283               258.7987               260.8760
 Red. masses --      1.2646                 2.1527                 1.5663
 Frc consts  --      0.0467                 0.0849                 0.0628
 IR Inten    --    137.2417                82.8000                16.9799

                     25                     26                     27
                      A                      A                      A
 Frequencies --    262.8623               269.0101               279.0859
 Red. masses --      1.7676                 2.6943                 1.2893
 Frc consts  --      0.0720                 0.1149                 0.0592
 IR Inten    --      7.9761                60.0918                 2.4040

                     28                     29                     30
                      A                      A                      A
 Frequencies --    315.6751               322.0198               405.4166
 Red. masses --      4.3047                 4.5549                 2.7663
 Frc consts  --      0.2527                 0.2783                 0.2679
 IR Inten    --      1.2911                 4.1819                 1.7186

                     31                     32                     33
                      A                      A                      A
 Frequencies --    412.8773               415.4755               425.4374
 Red. masses --      2.4508                 2.7381                 1.2058
 Frc consts  --      0.2462                 0.2785                 0.1286
 IR Inten    --      8.5811                28.0876                34.3290

                     34                     35                     36
                      A                      A                      A
 Frequencies --    509.2650               552.0175               569.0156
 Red. masses --      1.1642                 3.1513                 1.1368
 Frc consts  --      0.1779                 0.5658                 0.2169
 IR Inten    --     45.1993                11.2798                38.4636

                     37                     38                     39
                      A                      A                      A
 Frequencies --    580.9987               630.2647               636.5576
 Red. masses --      2.7211                 1.2359                 2.2515
 Frc consts  --      0.5412                 0.2893                 0.5375
 IR Inten    --      5.3760                17.0430                33.1061

                     40                     41                     42
                      A                      A                      A
 Frequencies --    647.7140               657.9737               673.5859
 Red. masses --      2.2477                 1.4700                 5.0876
 Frc consts  --      0.5556                 0.3750                 1.3600
 IR Inten    --      5.3949                59.9008                 5.0541

                     43                     44                     45
                      A                      A                      A
 Frequencies --    711.8790               780.1085               786.7768
 Red. masses --      1.9658                 1.3976                 1.0934
 Frc consts  --      0.5870                 0.5011                 0.3988
 IR Inten    --     41.7742                28.7586                71.9821

                     46                     47                     48
                      A                      A                      A
 Frequencies --    833.4331               837.4719               843.8790
 Red. masses --      1.5529                 1.4445                 1.5194
 Frc consts  --      0.6355                 0.5969                 0.6375
 IR Inten    --     37.7652               109.2292                86.4799

                     49                     50                     51
                      A                      A                      A
 Frequencies --    906.2332               928.9356               935.0163
 Red. masses --      1.1016                 1.2665                 2.5194
 Frc consts  --      0.5330                 0.6439                 1.2977
 IR Inten    --     56.8142                52.8227                 6.4787

                     52                     53                     54
                      A                      A                      A
 Frequencies --    952.2464               953.8950               976.6328
 Red. masses --      1.4432                 2.3412                 1.3926
 Frc consts  --      0.7710                 1.2551                 0.7826
 IR Inten    --     35.7414                 8.8935                 1.3162

                     55                     56                     57
                      A                      A                      A
 Frequencies --    984.5376              1012.6122              1031.0347
 Red. masses --      1.4652                 1.8728                 1.3798
 Frc consts  --      0.8368                 1.1315                 0.8642
 IR Inten    --      7.2221                10.2444                 0.3975

                     58                     59                     60
                      A                      A                      A
 Frequencies --   1047.0008              1055.3830              1078.5626
 Red. masses --      4.1690                 2.3680                 1.8274
 Frc consts  --      2.6926                 1.5540                 1.2525
 IR Inten    --      3.8775                 1.9832                16.0474

                     61                     62                     63
                      A                      A                      A
 Frequencies --   1094.8369              1117.7030              1149.0104
 Red. masses --      2.1627                 2.3444                 1.3518
 Frc consts  --      1.5274                 1.7256                 1.0515
 IR Inten    --      2.9579                 8.3753                 2.1360

                     64                     65                     66
                      A                      A                      A
 Frequencies --   1153.2543              1192.4872              1196.9188
 Red. masses --      1.3908                 1.1177                 1.8546
 Frc consts  --      1.0898                 0.9365                 1.5654
 IR Inten    --     11.6157                50.1437                10.4042

                     67                     68                     69
                      A                      A                      A
 Frequencies --   1215.8487              1228.6189              1244.1479
 Red. masses --      1.2942                 1.4368                 1.6610
 Frc consts  --      1.1272                 1.2779                 1.5149
 IR Inten    --      8.1281                 4.7541                 6.3208

                     70                     71                     72
                      A                      A                      A
 Frequencies --   1257.8178              1264.3440              1292.6683
 Red. masses --      1.8956                 1.6823                 1.5616
 Frc consts  --      1.7670                 1.5845                 1.5374
 IR Inten    --     17.1259                 7.2745                 3.1502

                     73                     74                     75
                      A                      A                      A
 Frequencies --   1298.6696              1327.7886              1331.3989
 Red. masses --      1.3853                 1.3792                 1.9146
 Frc consts  --      1.3765                 1.4327                 1.9996
 IR Inten    --     10.5463                 4.9794                15.5366

                     76                     77                     78
                      A                      A                      A
 Frequencies --   1359.6351              1379.8184              1381.5715
 Red. masses --      1.3460                 1.9063                 1.5462
 Frc consts  --      1.4660                 2.1384                 1.7389
 IR Inten    --      4.3371                12.1743                 5.7597

                     79                     80                     81
                      A                      A                      A
 Frequencies --   1401.6479              1440.5360              1459.6691
 Red. masses --      1.9321                 1.5600                 1.1978
 Frc consts  --      2.2365                 1.9074                 1.5036
 IR Inten    --      1.7034                23.2632                 5.6875

                     82                     83                     84
                      A                      A                      A
 Frequencies --   1486.1231              1492.5039              1496.4801
 Red. masses --      1.0818                 1.0551                 1.0509
 Frc consts  --      1.4077                 1.3848                 1.3866
 IR Inten    --      2.6081                12.0001                10.9116

                     85                     86                     87
                      A                      A                      A
 Frequencies --   1506.5565              1518.8000              1526.9728
 Red. masses --      1.0894                 1.5422                 1.4121
 Frc consts  --      1.4568                 2.0959                 1.9399
 IR Inten    --     10.3774                28.5705                12.2050

                     88                     89                     90
                      A                      A                      A
 Frequencies --   1623.8286              1634.0231              1638.6088
 Red. masses --      1.5312                 1.0975                 1.3546
 Frc consts  --      2.3788                 1.7266                 2.1430
 IR Inten    --    104.4601                62.2541                21.9731

                     91                     92                     93
                      A                      A                      A
 Frequencies --   1667.4649              1672.1908              1689.3752
 Red. masses --      1.0748                 1.0733                 1.1139
 Frc consts  --      1.7608                 1.7682                 1.8730
 IR Inten    --     69.8997                27.4860                 7.9324

                     94                     95                     96
                      A                      A                      A
 Frequencies --   1711.5349              1720.1859              2969.8837
 Red. masses --      3.2284                 3.5257                 1.0835
 Frc consts  --      5.5720                 6.1468                 5.6307
 IR Inten    --     21.8903                 9.2606                49.1657

                     97                     98                     99
                      A                      A                      A
 Frequencies --   2989.2693              2998.3438              3011.8474
 Red. masses --      1.0493                 1.0712                 1.0964
 Frc consts  --      5.5242                 5.6740                 5.8600
 IR Inten    --     52.5239                66.3402              1498.1910

                    100                    101                    102
                      A                      A                      A
 Frequencies --   3088.2571              3100.4676              3106.6992
 Red. masses --      1.0639                 1.0669                 1.0865
 Frc consts  --      5.9785                 6.0426                 6.1786
 IR Inten    --     15.0658                17.5174                 9.8522

                    103                    104                    105
                      A                      A                      A
 Frequencies --   3117.2193              3144.1583              3151.5848
 Red. masses --      1.0912                 1.1041                 1.1050
 Frc consts  --      6.2471                 6.4309                 6.4666
 IR Inten    --     19.9604                 1.0146                 5.7441

                    106                    107                    108
                      A                      A                      A
 Frequencies --   3161.4816              3199.7440              3211.5345
 Red. masses --      1.1051                 1.0727                 1.0925
 Frc consts  --      6.5080                 6.4709                 6.6388
 IR Inten    --     28.0525              1098.2025                 6.8789

                    109                    110                    111
                      A                      A                      A
 Frequencies --   3234.9630              3248.1634              3263.4358
 Red. masses --      1.0931                 1.0927                 1.1008
 Frc consts  --      6.7397                 6.7923                 6.9074
 IR Inten    --    252.9865                 1.7666                 2.1284

                    112                    113                    114
                      A                      A                      A
 Frequencies --   3447.7971              3543.1777              3638.5137
 Red. masses --      1.0622                 1.0589                 1.0739
 Frc consts  --      7.4392                 7.8325                 8.3762
 IR Inten    --    871.9360               411.5787              1268.1572

                    115                    116                    117
                      A                      A                      A
 Frequencies --   3671.4301              3879.4446              3943.8130
 Red. masses --      1.0606                 1.0453                 1.0668
 Frc consts  --      8.4235                 9.2687                 9.7765
 IR Inten    --    181.0685                23.7641                89.4932

                    118                    119                    120
                      A                      A                      A
 Frequencies --   3951.0053              3952.8794              3984.8410
 Red. masses --      1.0692                 1.0690                 1.0829
 Frc consts  --      9.8335                 9.8411                10.1311
 IR Inten    --    151.3126                48.2661               110.6579

 - Thermochemistry -
 -------------------
 Temperature   298.150 Kelvin.  Pressure   1.00000 Atm.
 Atom     1 has atomic number  6 and mass  12.00000

 Molecular mass:   253.17635 amu.
 Principal axes and moments of inertia in atomic units:
                           1         2         3
     Eigenvalues --  4245.846866003.913498213.94251
           X            0.99997  -0.00720  -0.00040
           Y            0.00720   0.99997   0.00146
           Z            0.00039  -0.00146   1.00000
 This molecule is an asymmetric top.
 Rotational symmetry number  1.
 Warning -- assumption of classical behavior for rotation
           may cause significant error
 Rotational temperatures (Kelvin)      0.02040     0.01443     0.01054
 Rotational constants (GHZ):           0.42506     0.30059     0.21972
 Zero-point vibrational energy     967019.7 (Joules/Mol)
                                  231.12326 (Kcal/Mol)
 Warning -- explicit consideration of  37 degrees of freedom as
           vibrations may cause significant error
 Vibrational temperatures:     38.07    42.80    60.03    73.33    83.09
          (Kelvin)             88.09    98.18   101.11   115.59   127.55
                              151.37   167.87   198.97   224.20   235.19
                              236.49   268.82   302.25   308.28   315.83
                              358.80   360.02   372.35   375.34   378.20
                              387.05   401.54   454.19   463.31   583.30
                              594.04   597.78   612.11   732.72   794.23
                              818.69   835.93   906.81   915.86   931.92
                              946.68   969.14  1024.24  1122.40  1132.00
                             1199.12  1204.94  1214.15  1303.87  1336.53
                             1345.28  1370.07  1372.44  1405.16  1416.53
                             1456.92  1483.43  1506.40  1518.46  1551.81
                             1575.23  1608.13  1653.17  1659.28  1715.72
                             1722.10  1749.34  1767.71  1790.05  1809.72
                             1819.11  1859.86  1868.50  1910.39  1915.59
                             1956.21  1985.25  1987.77  2016.66  2072.61
                             2100.14  2138.20  2147.38  2153.10  2167.60
                             2185.21  2196.97  2336.33  2350.99  2357.59
                             2399.11  2405.91  2430.63  2462.52  2474.96
                             4273.00  4300.89  4313.95  4333.38  4443.31
                             4460.88  4469.85  4484.98  4523.74  4534.43
                             4548.67  4603.72  4620.68  4654.39  4673.38
                             4695.36  4960.61  5097.84  5235.01  5282.37
                             5581.66  5674.27  5684.62  5687.31  5733.30

 Zero-point correction=                           0.368318 (Hartree/Particle)
 Thermal correction to Energy=                    0.393490
 Thermal correction to Enthalpy=                  0.394434
 Thermal correction to Gibbs Free Energy=         0.312086
 Sum of electronic and zero-point Energies=           -881.103124
 Sum of electronic and thermal Energies=              -881.077952
 Sum of electronic and thermal Enthalpies=            -881.077008
 Sum of electronic and thermal Free Energies=         -881.159356

                     E (Thermal)             CV                S
                      KCal/Mol        Cal/Mol-Kelvin    Cal/Mol-Kelvin
 Total                  246.919             87.856            173.316
 Electronic               0.000              0.000              0.000
 Translational            0.889              2.981             42.487
 Rotational               0.889              2.981             33.704
 Vibrational            245.141             81.894             97.125
 Vibration     1          0.593              1.985              6.078
 Vibration     2          0.594              1.984              5.846
 Vibration     3          0.594              1.981              5.176
 Vibration     4          0.595              1.977              4.779
 Vibration     5          0.596              1.974              4.533
 Vibration     6          0.597              1.973              4.417
 Vibration     7          0.598              1.969              4.204
 Vibration     8          0.598              1.968              4.146
 Vibration     9          0.600              1.962              3.883
 Vibration    10          0.601              1.957              3.690
 Vibration    11          0.605              1.945              3.356
 Vibration    12          0.608              1.936              3.155
 Vibration    13          0.614              1.915              2.827
 Vibration    14          0.620              1.896              2.600
 Vibration    15          0.623              1.887              2.509
 Vibration    16          0.623              1.886              2.499
 Vibration    17          0.632              1.858              2.259
 Vibration    18          0.642              1.825              2.043
 Vibration    19          0.644              1.819              2.007
 Vibration    20          0.647              1.811              1.963
 Vibration    21          0.662              1.764              1.735
 Vibration    22          0.663              1.762              1.729
 Vibration    23          0.668              1.748              1.670
 Vibration    24          0.669              1.744              1.656
 Vibration    25          0.670              1.741              1.643
 Vibration    26          0.673              1.730              1.603
 Vibration    27          0.679              1.712              1.539
 Vibration    28          0.703              1.644              1.332
 Vibration    29          0.707              1.631              1.300
 Vibration    30          0.770              1.458              0.943
 Vibration    31          0.777              1.442              0.917
 Vibration    32          0.779              1.437              0.907
 Vibration    33          0.787              1.415              0.874
 Vibration    34          0.864              1.229              0.635
 Vibration    35          0.907              1.135              0.540
 Vibration    36          0.925              1.098              0.506
 Vibration    37          0.938              1.072              0.484

                           ! Non-Optimized Parameters !
 Normal termination of Gaussian 16 at Fri Dec  9 17:57:23 2022.
