 Gaussian 16, Revision A.03,
 Gaussian 16:  ES64L-G16RevA.03 25-Dec-2016

 -----------------------------
 # wB97XD/aug-cc-pVDZ opt freq
 -----------------------------

 ----
 blah
 ----
 Symbolic Z-matrix:
 Charge =  1 Multiplicity = 1

 SCF Done:  E(RwB97XD) =  -881.465245257     A.U. after   16 cycles
 SCF Done:  E(RwB97XD) =  -881.465823975     A.U. after   13 cycles
 SCF Done:  E(RwB97XD) =  -881.465653039     A.U. after   15 cycles
 SCF Done:  E(RwB97XD) =  -881.466034119     A.U. after   13 cycles
 SCF Done:  E(RwB97XD) =  -881.466306459     A.U. after   12 cycles
 SCF Done:  E(RwB97XD) =  -881.466188020     A.U. after   12 cycles
 SCF Done:  E(RwB97XD) =  -881.466411258     A.U. after   12 cycles
 SCF Done:  E(RwB97XD) =  -881.466415948     A.U. after   12 cycles
 SCF Done:  E(RwB97XD) =  -881.466451240     A.U. after   11 cycles
 SCF Done:  E(RwB97XD) =  -881.466475593     A.U. after   10 cycles
 SCF Done:  E(RwB97XD) =  -881.466550227     A.U. after    9 cycles
 SCF Done:  E(RwB97XD) =  -881.466551170     A.U. after   10 cycles
 SCF Done:  E(RwB97XD) =  -881.466551656     A.U. after   10 cycles
 SCF Done:  E(RwB97XD) =  -881.466552021     A.U. after   10 cycles
 SCF Done:  E(RwB97XD) =  -881.466552223     A.U. after   10 cycles
 SCF Done:  E(RwB97XD) =  -881.466552313     A.U. after    8 cycles
 SCF Done:  E(RwB97XD) =  -881.466552326     A.U. after    8 cycles
 SCF Done:  E(RwB97XD) =  -881.466552338     A.U. after    8 cycles
 SCF Done:  E(RwB97XD) =  -881.466552343     A.U. after    9 cycles
 Optimization completed.
    -- Stationary point found.
 Normal termination of Gaussian 16 at Tue Dec  6 15:07:21 2022.

 ----------------------------------------------------------------------
 #N Geom=AllCheck Guess=TCheck SCRF=Check GenChk RwB97XD/Aug-CC-pVDZ Fr
 eq
 ----------------------------------------------------------------------

 Structure from the checkpoint file:  "/gscratch/scrubbed/gds001/Gau-22693.chk"
 ----
 blah
 ----
 Charge =  1 Multiplicity = 1

                         Standard orientation:
 ---------------------------------------------------------------------
 Center     Atomic      Atomic             Coordinates (Angstroms)
 Number     Number       Type             X           Y           Z
 ---------------------------------------------------------------------
      1          6           0        2.615016    1.898842    0.926226
      2          6           0        2.003453    0.844522    0.244918
      3          6           0        0.827123    1.126893   -0.441051
      4          7           0        0.311139    2.362112   -0.429597
      5          6           0        0.884587    3.386978    0.218256
      6          6           0        2.063113    3.180489    0.909351
      7          6           0        2.601429   -0.541715    0.231747
      8          7           0        1.630330   -1.604387    0.514657
      9          6           0        2.365944   -2.835667    0.193699
     10          6           0        3.094632   -2.506835   -1.116826
     11          6           0        3.196689   -0.962682   -1.124750
     12          8           0       -2.118359    2.383325   -1.401994
     13          8           0       -2.345601    0.162350   -0.066593
     14          8           0       -0.551204   -1.610296   -1.229765
     15          1           0        1.671938   -3.681451    0.115116
     16          1           0        4.077413   -2.987142   -1.154838
     17          1           0        2.523160   -2.857737   -1.982957
     18          1           0        4.223005   -0.597246   -1.236297
     19          1           0        2.602273   -0.535673   -1.941668
     20          1           0        3.088545   -3.067710    0.997762
     21          1           0        3.400649   -0.564042    0.999229
     22          1           0        0.266628    0.382166   -1.003107
     23          1           0        0.371704    4.344160    0.166915
     24          1           0        2.534211    4.006289    1.436876
     25          1           0        3.534979    1.717072    1.482641
     26          6           0        1.103190   -1.581124    1.873487
     27          1           0       -0.622411    2.491607   -0.920807
     28          1           0        0.217877   -1.718003   -0.618908
     29          1           0       -0.718607   -2.460754   -1.640639
     30          1           0       -2.385492    1.523574   -0.977609
     31          1           0       -2.466576    2.394477   -2.295824
     32          1           0       -3.147851   -0.173896    0.382177
     33          1           0       -1.890796   -0.604001   -0.455041
     34          8           0       -4.553828   -0.828860    1.173102
     35          1           0       -4.713580   -0.725160    2.113193
     36          1           0       -5.431836   -0.850195    0.753062
     37          1           0        0.424735   -2.430416    2.013535
     38          1           0        0.529452   -0.661082    2.039367
     39          1           0        1.908595   -1.645776    2.627797
     40          8           0       -7.042520   -0.939911   -0.063332
     41          1           0       -7.692687   -0.234853   -0.116882
     42          1           0       -7.534558   -1.759349   -0.160211
 ---------------------------------------------------------------------

 SCF Done:  E(RwB97XD) =  -881.466552343     A.U. after    1 cycles

 The electronic state is 1-A.
 Alpha  occ. eigenvalues --  -19.38518 -19.37597 -19.37364 -19.35808 -19.34712
 Alpha  occ. eigenvalues --  -14.66381 -14.57443 -10.50134 -10.49575 -10.47034
 Alpha  occ. eigenvalues --  -10.46478 -10.46072 -10.45832 -10.42942 -10.42473
 Alpha  occ. eigenvalues --  -10.41010 -10.40127  -1.24863  -1.22870  -1.22046
 Alpha  occ. eigenvalues --   -1.21634  -1.20234  -1.18431  -1.16940  -1.07491
 Alpha  occ. eigenvalues --   -1.03826  -1.00014  -0.95303  -0.89717  -0.89044
 Alpha  occ. eigenvalues --   -0.88082  -0.81757  -0.79205  -0.78920  -0.74054
 Alpha  occ. eigenvalues --   -0.73952  -0.73273  -0.73167  -0.72289  -0.71330
 Alpha  occ. eigenvalues --   -0.71097  -0.70243  -0.69047  -0.67820  -0.66983
 Alpha  occ. eigenvalues --   -0.65013  -0.63799  -0.63225  -0.61698  -0.61113
 Alpha  occ. eigenvalues --   -0.60888  -0.59424  -0.58209  -0.57471  -0.56890
 Alpha  occ. eigenvalues --   -0.56691  -0.55899  -0.55150  -0.54022  -0.53466
 Alpha  occ. eigenvalues --   -0.52527  -0.51536  -0.51405  -0.51276  -0.50839
 Alpha  occ. eigenvalues --   -0.49274  -0.48849  -0.48369  -0.43810
 Alpha virt. eigenvalues --   -0.12991  -0.10138  -0.05651  -0.04868  -0.04346
 Alpha virt. eigenvalues --   -0.04196  -0.03462  -0.02940  -0.02555  -0.02408
 Alpha virt. eigenvalues --   -0.01608  -0.01350  -0.01014  -0.00616  -0.00357

 Mulliken charges:
               1
     1  C    1.191041
     2  C    0.808140
     3  C    0.564623
     4  N    0.009769
     5  C    0.696456
     6  C    0.384746
     7  C    1.430890
     8  N   -1.257103
     9  C    1.256871
    10  C    0.803414
    11  C    1.004040
    12  O   -0.487379
    13  O   -0.463019
    14  O   -0.431593
    15  H   -0.565280
    16  H   -0.273616
    17  H   -0.277138
    18  H   -0.509752
    19  H   -0.288626
    20  H   -0.561815
    21  H   -0.864270
    22  H   -1.224196
    23  H   -0.619142
    24  H   -0.562464
    25  H   -0.900664
    26  C    0.937622
    27  H    0.096152
    28  H    0.527603
    29  H    0.155473
    30  H    0.273023
    31  H    0.158881
    32  H    0.307943
    33  H    0.224644
    34  O   -0.334572
    35  H    0.123589
    36  H    0.214323
    37  H   -0.214382
    38  H   -0.119977
    39  H   -0.192602
    40  O   -0.312136
    41  H    0.146746
    42  H    0.143737
 Sum of Mulliken charges =   1.00000

 Dipole moment (field-independent basis, Debye):
    X=             -1.3850    Y=              1.7532    Z=              0.5366  Tot=              2.2978
 Quadrupole moment (field-independent basis, Debye-Ang):
   XX=            -12.4244   YY=            -65.4893   ZZ=            -91.0057
   XY=             10.6943   XZ=              4.6938   YZ=              2.4443

  Exact polarizability: 177.861  -7.770 194.413  11.274   6.967 145.733
 Approx polarizability: 185.487  -5.088 199.169  17.992   8.610 166.993

                      1                      2                      3
                      A                      A                      A
 Frequencies --     10.2051                14.6918                23.3651
 Red. masses --      4.6214                 4.4566                 4.3199
 Frc consts  --      0.0003                 0.0006                 0.0014
 IR Inten    --      0.6361                 1.2966                 0.4525

                      4                      5                      6
                      A                      A                      A
 Frequencies --     25.9223                35.7840                55.0450
 Red. masses --      5.8883                 4.1411                 4.6673
 Frc consts  --      0.0023                 0.0031                 0.0083
 IR Inten    --      0.7185                 1.1707                 2.7773

                      7                      8                      9
                      A                      A                      A
 Frequencies --     63.4085                65.6333                78.4472
 Red. masses --      5.4316                 3.6343                 4.5140
 Frc consts  --      0.0129                 0.0092                 0.0164
 IR Inten    --      1.3056                 2.6704                 5.8987

                     10                     11                     12
                      A                      A                      A
 Frequencies --     86.7329                96.4240               102.4046
 Red. masses --      2.5856                 3.9125                 1.0910
 Frc consts  --      0.0115                 0.0214                 0.0067
 IR Inten    --      0.6324                 5.5446                30.5454

                     13                     14                     15
                      A                      A                      A
 Frequencies --    118.4148               155.6522               162.8141
 Red. masses --      3.9577                 2.1207                 3.6650
 Frc consts  --      0.0327                 0.0303                 0.0572
 IR Inten    --      4.6637                 1.7574                10.3852

                     16                     17                     18
                      A                      A                      A
 Frequencies --    168.1327               179.7451               191.4698
 Red. masses --      1.2094                 4.5650                 1.1914
 Frc consts  --      0.0201                 0.0869                 0.0257
 IR Inten    --    199.5899                26.6711                43.0395

                     19                     20                     21
                      A                      A                      A
 Frequencies --    201.9574               221.4236               232.8421
 Red. masses --      3.0417                 3.6886                 1.0971
 Frc consts  --      0.0731                 0.1066                 0.0350
 IR Inten    --      7.8533                23.5500                25.9506

                     22                     23                     24
                      A                      A                      A
 Frequencies --    241.9767               245.2555               258.4082
 Red. masses --      1.1705                 1.4368                 2.9906
 Frc consts  --      0.0404                 0.0509                 0.1177
 IR Inten    --     57.4145                39.0065                33.0621

                     25                     26                     27
                      A                      A                      A
 Frequencies --    267.4920               276.0109               303.5964
 Red. masses --      3.4500                 4.8768                 1.4959
 Frc consts  --      0.1454                 0.2189                 0.0812
 IR Inten    --     11.4022                25.9653                62.7897

                     28                     29                     30
                      A                      A                      A
 Frequencies --    311.9519               362.4877               396.9330
 Red. masses --      2.3473                 4.9637                 2.8342
 Frc consts  --      0.1346                 0.3843                 0.2631
 IR Inten    --     49.5044                13.8596                 9.9122

                     31                     32                     33
                      A                      A                      A
 Frequencies --    406.0712               417.8657               419.8631
 Red. masses --      1.0702                 3.0484                 2.9745
 Frc consts  --      0.1040                 0.3136                 0.3089
 IR Inten    --     26.1397                 5.3093                 9.2090

                     34                     35                     36
                      A                      A                      A
 Frequencies --    524.3596               537.4268               555.0209
 Red. masses --      1.1974                 1.3901                 1.9638
 Frc consts  --      0.1940                 0.2366                 0.3564
 IR Inten    --     35.1760                25.2750                17.4957

                     37                     38                     39
                      A                      A                      A
 Frequencies --    585.4412               635.2979               645.7428
 Red. masses --      2.8145                 3.4834                 2.2305
 Frc consts  --      0.5684                 0.8283                 0.5480
 IR Inten    --      5.7696                21.6227                14.4527

                     40                     41                     42
                      A                      A                      A
 Frequencies --    653.8128               674.3668               703.5954
 Red. masses --      1.4047                 5.0897                 1.3175
 Frc consts  --      0.3538                 1.3637                 0.3843
 IR Inten    --     47.8058                11.1387               136.7819

                     43                     44                     45
                      A                      A                      A
 Frequencies --    714.0032               726.6478               782.3368
 Red. masses --      1.1281                 1.4022                 1.4249
 Frc consts  --      0.3389                 0.4362                 0.5138
 IR Inten    --    116.3438               123.8690                 0.8879

                     46                     47                     48
                      A                      A                      A
 Frequencies --    835.4415               838.3732               840.1245
 Red. masses --      1.1618                 1.5015                 1.9863
 Frc consts  --      0.4778                 0.6218                 0.8260
 IR Inten    --     62.8324                18.9213                 8.9533

                     49                     50                     51
                      A                      A                      A
 Frequencies --    866.1752               935.0909               940.6626
 Red. masses --      1.0776                 1.9632                 2.4837
 Frc consts  --      0.4763                 1.0114                 1.2948
 IR Inten    --     36.4721                 3.9302                22.7659

                     52                     53                     54
                      A                      A                      A
 Frequencies --    954.8372               980.0848               982.1143
 Red. masses --      2.4150                 1.2503                 1.5866
 Frc consts  --      1.2973                 0.7076                 0.9017
 IR Inten    --     15.1332                38.9995                 5.8030

                     55                     56                     57
                      A                      A                      A
 Frequencies --   1005.0729              1015.4539              1034.7799
 Red. masses --      1.3504                 1.4220                 1.3725
 Frc consts  --      0.8038                 0.8639                 0.8659
 IR Inten    --     63.8804                54.4369                 2.7471

                     58                     59                     60
                      A                      A                      A
 Frequencies --   1044.6731              1053.8368              1075.8756
 Red. masses --      4.1403                 2.3563                 1.8440
 Frc consts  --      2.6622                 1.5418                 1.2576
 IR Inten    --      5.2311                 1.6407                17.5765

                     61                     62                     63
                      A                      A                      A
 Frequencies --   1093.8708              1118.2640              1143.8768
 Red. masses --      2.1674                 2.3282                 1.2841
 Frc consts  --      1.5280                 1.7153                 0.9899
 IR Inten    --      3.8474                 9.9167                 3.8439

                     64                     65                     66
                      A                      A                      A
 Frequencies --   1149.9356              1199.2067              1215.0190
 Red. masses --      1.5099                 1.8158                 1.3054
 Frc consts  --      1.1764                 1.5386                 1.1354
 IR Inten    --      7.0461                15.4258                 8.6351

                     67                     68                     69
                      A                      A                      A
 Frequencies --   1226.2333              1243.6887              1254.3610
 Red. masses --      1.4505                 1.6678                 1.1507
 Frc consts  --      1.2850                 1.5199                 1.0667
 IR Inten    --      5.1458                 5.9459                28.0563

                     70                     71                     72
                      A                      A                      A
 Frequencies --   1260.0036              1264.2847              1292.6272
 Red. masses --      1.8226                 1.6615                 1.4622
 Frc consts  --      1.7048                 1.5647                 1.4395
 IR Inten    --     33.5127                 4.6034                 1.1281

                     73                     74                     75
                      A                      A                      A
 Frequencies --   1298.8223              1328.5966              1331.0625
 Red. masses --      1.4877                 1.3867                 2.1183
 Frc consts  --      1.4787                 1.4422                 2.2112
 IR Inten    --     12.2439                 5.4584                16.0960

                     76                     77                     78
                      A                      A                      A
 Frequencies --   1356.9497              1378.2344              1382.5399
 Red. masses --      1.3619                 1.7746                 1.5386
 Frc consts  --      1.4775                 1.9861                 1.7328
 IR Inten    --      4.9867                14.3456                 4.9626

                     79                     80                     81
                      A                      A                      A
 Frequencies --   1403.2408              1442.0644              1454.0645
 Red. masses --      1.8697                 1.5343                 1.2415
 Frc consts  --      2.1691                 1.8799                 1.5465
 IR Inten    --      3.0931                19.2600                 8.7081

                     82                     83                     84
                      A                      A                      A
 Frequencies --   1482.1590              1484.2965              1488.8748
 Red. masses --      1.0461                 1.0722                 1.0706
 Frc consts  --      1.3540                 1.3917                 1.3983
 IR Inten    --     16.4106                 6.5396                 5.4537

                     85                     86                     87
                      A                      A                      A
 Frequencies --   1505.6931              1517.9076              1526.4965
 Red. masses --      1.0894                 1.6410                 1.3351
 Frc consts  --      1.4551                 2.2277                 1.8330
 IR Inten    --     11.2029                36.0326                11.0898

                     88                     89                     90
                      A                      A                      A
 Frequencies --   1612.2278              1627.9442              1637.0931
 Red. masses --      1.1988                 1.0936                 1.8351
 Frc consts  --      1.8359                 1.7076                 2.8978
 IR Inten    --    101.4827               108.4014                 5.4999

                     91                     92                     93
                      A                      A                      A
 Frequencies --   1654.2308              1661.3891              1691.9084
 Red. masses --      1.1001                 1.0786                 1.2305
 Frc consts  --      1.7737                 1.7542                 2.0753
 IR Inten    --     17.5267                22.9490                18.4432

                     94                     95                     96
                      A                      A                      A
 Frequencies --   1708.9619              1723.8557              2775.1137
 Red. masses --      3.3136                 2.2353                 1.1096
 Frc consts  --      5.7018                 3.9137                 5.0346
 IR Inten    --     12.3113                36.2350              2149.9454

                     97                     98                     99
                      A                      A                      A
 Frequencies --   2962.9612              2993.4297              2997.0471
 Red. masses --      1.0833                 1.0516                 1.0703
 Frc consts  --      5.6032                 5.5520                 5.6640
 IR Inten    --     43.6911                33.9219                86.1419

                    100                    101                    102
                      A                      A                      A
 Frequencies --   3087.0797              3104.4807              3110.1617
 Red. masses --      1.0634                 1.0668                 1.0855
 Frc consts  --      5.9709                 6.0578                 6.1866
 IR Inten    --     14.9885                15.7932                17.8701

                    103                    104                    105
                      A                      A                      A
 Frequencies --   3118.9993              3143.7881              3153.0843
 Red. masses --      1.0902                 1.1047                 1.1040
 Frc consts  --      6.2484                 6.4331                 6.4669
 IR Inten    --     21.5040                 2.1232                12.3536

                    106                    107                    108
                      A                      A                      A
 Frequencies --   3163.3861              3213.4638              3224.5166
 Red. masses --      1.1061                 1.0925                 1.0977
 Frc consts  --      6.5214                 6.6467                 6.7247
 IR Inten    --     23.2527                 0.4190                20.6819

                    109                    110                    111
                      A                      A                      A
 Frequencies --   3245.8960              3258.3142              3260.5278
 Red. masses --      1.0927                 1.0660                 1.1005
 Frc consts  --      6.7828                 6.6677                 6.8931
 IR Inten    --      1.0162              1215.9203                20.7497

                    112                    113                    114
                      A                      A                      A
 Frequencies --   3337.2035              3553.3932              3669.3769
 Red. masses --      1.0672                 1.0593                 1.0578
 Frc consts  --      7.0029                 7.8807                 8.3917
 IR Inten    --   1064.7472              1011.5900               648.2755

                    115                    116                    117
                      A                      A                      A
 Frequencies --   3697.3414              3880.7509              3947.9532
 Red. masses --      1.0740                 1.0451                 1.0676
 Frc consts  --      8.6502                 9.2737                 9.8038
 IR Inten    --    451.4746                23.3753                91.1427

                    118                    119                    120
                      A                      A                      A
 Frequencies --   3950.3855              3956.9406              3988.4312
 Red. masses --      1.0670                 1.0699                 1.0830
 Frc consts  --      9.8107                 9.8702                10.1501
 IR Inten    --    107.9784                97.6270               106.4889

 - Thermochemistry -
 -------------------
 Temperature   298.150 Kelvin.  Pressure   1.00000 Atm.
 Atom     1 has atomic number  6 and mass  12.00000

 Molecular mass:   253.17635 amu.
 Principal axes and moments of inertia in atomic units:
                           1         2         3
     Eigenvalues --  4147.495238744.54381**********
           X            0.99996  -0.00932  -0.00018
           Y            0.00932   0.99996  -0.00133
           Z            0.00020   0.00133   1.00000
 This molecule is an asymmetric top.
 Rotational symmetry number  1.
 Warning -- assumption of classical behavior for rotation
           may cause significant error
 Rotational temperatures (Kelvin)      0.02088     0.00990     0.00770
 Rotational constants (GHZ):           0.43514     0.20638     0.16045
 Zero-point vibrational energy     964746.9 (Joules/Mol)
                                  230.58005 (Kcal/Mol)
 Warning -- explicit consideration of  37 degrees of freedom as
           vibrations may cause significant error
 Vibrational temperatures:     14.68    21.14    33.62    37.30    51.49
          (Kelvin)             79.20    91.23    94.43   112.87   124.79
                              138.73   147.34   170.37   223.95   234.25
                              241.91   258.61   275.48   290.57   318.58
                              335.01   348.15   352.87   371.79   384.86
                              397.12   436.81   448.83   521.54   571.10
                              584.25   601.22   604.09   754.44   773.24
                              798.55   842.32   914.05   929.08   940.69
                              970.26  1012.32  1027.29  1045.48  1125.61
                             1202.01  1206.23  1208.75  1246.23  1345.39
                             1353.40  1373.80  1410.12  1413.04  1446.08
                             1461.01  1488.82  1503.05  1516.24  1547.95
                             1573.84  1608.93  1645.78  1654.50  1725.39
                             1748.14  1764.28  1789.39  1804.75  1812.86
                             1819.02  1859.80  1868.72  1911.55  1915.10
                             1952.35  1982.97  1989.17  2018.95  2074.81
                             2092.07  2132.50  2135.57  2142.16  2166.36
                             2183.93  2196.29  2319.64  2342.25  2355.41
                             2380.07  2390.37  2434.28  2458.81  2480.24
                             3992.77  4263.04  4306.88  4312.08  4441.62
                             4466.66  4474.83  4487.54  4523.21  4536.59
                             4551.41  4623.46  4639.36  4670.12  4687.99
                             4691.17  4801.49  5112.54  5279.42  5319.65
                             5583.53  5680.22  5683.72  5693.15  5738.46

 Zero-point correction=                           0.367453 (Hartree/Particle)
 Thermal correction to Energy=                    0.392981
 Thermal correction to Enthalpy=                  0.393925
 Thermal correction to Gibbs Free Energy=         0.307331
 Sum of electronic and zero-point Energies=           -881.099100
 Sum of electronic and thermal Energies=              -881.073572
 Sum of electronic and thermal Enthalpies=            -881.072627
 Sum of electronic and thermal Free Energies=         -881.159222

                     E (Thermal)             CV                S
                      KCal/Mol        Cal/Mol-Kelvin    Cal/Mol-Kelvin
 Total                  246.599             87.889            182.253
 Electronic               0.000              0.000              0.000
 Translational            0.889              2.981             42.487
 Rotational               0.889              2.981             34.366
 Vibrational            244.822             81.927            105.400
 Vibration     1          0.593              1.987              7.971
 Vibration     2          0.593              1.986              7.247
 Vibration     3          0.593              1.985              6.325
 Vibration     4          0.593              1.985              6.119
 Vibration     5          0.594              1.982              5.480
 Vibration     6          0.596              1.976              4.627
 Vibration     7          0.597              1.972              4.348
 Vibration     8          0.597              1.971              4.280
 Vibration     9          0.600              1.964              3.929
 Vibration    10          0.601              1.958              3.732
 Vibration    11          0.603              1.952              3.525
 Vibration    12          0.604              1.947              3.408
 Vibration    13          0.609              1.934              3.126
 Vibration    14          0.620              1.896              2.602
 Vibration    15          0.623              1.888              2.517
 Vibration    16          0.625              1.882              2.456
 Vibration    17          0.629              1.867              2.331
 Vibration    18          0.634              1.852              2.214
 Vibration    19          0.639              1.837              2.115
 Vibration    20          0.648              1.808              1.947
 Vibration    21          0.654              1.791              1.857
 Vibration    22          0.658              1.776              1.788
 Vibration    23          0.660              1.771              1.764
 Vibration    24          0.667              1.749              1.673
 Vibration    25          0.673              1.733              1.612
 Vibration    26          0.678              1.718              1.558
 Vibration    27          0.695              1.667              1.397
 Vibration    28          0.700              1.651              1.352
 Vibration    29          0.736              1.550              1.111
 Vibration    30          0.763              1.477              0.974
 Vibration    31          0.771              1.457              0.941
 Vibration    32          0.781              1.431              0.899
 Vibration    33          0.783              1.427              0.892
 Vibration    34          0.879              1.196              0.600
 Vibration    35          0.892              1.167              0.571
 Vibration    36          0.910              1.129              0.534
 Vibration    37          0.942              1.063              0.475

                           ! Non-Optimized Parameters !
 Normal termination of Gaussian 16 at Tue Dec  6 16:26:43 2022.
