 Gaussian 16, Revision A.03,
 Gaussian 16:  ES64L-G16RevA.03 25-Dec-2016

 -----------------------------
 # wB97XD/aug-cc-pVDZ opt freq
 -----------------------------

 ----
 blah
 ----
 Symbolic Z-matrix:
 Charge =  1 Multiplicity = 1

 SCF Done:  E(RwB97XD) =  -881.470623595     A.U. after   16 cycles
 SCF Done:  E(RwB97XD) =  -881.471298257     A.U. after   14 cycles
 SCF Done:  E(RwB97XD) =  -881.471514397     A.U. after   12 cycles
 SCF Done:  E(RwB97XD) =  -881.471905549     A.U. after   11 cycles
 SCF Done:  E(RwB97XD) =  -881.472011925     A.U. after   11 cycles
 SCF Done:  E(RwB97XD) =  -881.472141825     A.U. after   11 cycles
 SCF Done:  E(RwB97XD) =  -881.472192180     A.U. after   11 cycles
 SCF Done:  E(RwB97XD) =  -881.472189439     A.U. after   11 cycles
 SCF Done:  E(RwB97XD) =  -881.472244401     A.U. after   10 cycles
 SCF Done:  E(RwB97XD) =  -881.472257050     A.U. after   10 cycles
 SCF Done:  E(RwB97XD) =  -881.472341445     A.U. after    9 cycles
 SCF Done:  E(RwB97XD) =  -881.472342010     A.U. after   10 cycles
 SCF Done:  E(RwB97XD) =  -881.472342146     A.U. after    9 cycles
 SCF Done:  E(RwB97XD) =  -881.472342272     A.U. after   10 cycles
 SCF Done:  E(RwB97XD) =  -881.472342520     A.U. after    8 cycles
 SCF Done:  E(RwB97XD) =  -881.472342598     A.U. after    9 cycles
 SCF Done:  E(RwB97XD) =  -881.472342607     A.U. after    9 cycles
 SCF Done:  E(RwB97XD) =  -881.472342608     A.U. after    9 cycles
 SCF Done:  E(RwB97XD) =  -881.472342616     A.U. after    9 cycles
 Optimization completed.
    -- Stationary point found.
 Normal termination of Gaussian 16 at Thu Dec  8 16:22:06 2022.

 ----------------------------------------------------------------------
 #N Geom=AllCheck Guess=TCheck SCRF=Check GenChk RwB97XD/Aug-CC-pVDZ Fr
 eq
 ----------------------------------------------------------------------

 Structure from the checkpoint file:  "/gscratch/scrubbed/gds001/Gau-6725.chk"
 ----
 blah
 ----
 Charge =  1 Multiplicity = 1

                         Standard orientation:
 ---------------------------------------------------------------------
 Center     Atomic      Atomic             Coordinates (Angstroms)
 Number     Number       Type             X           Y           Z
 ---------------------------------------------------------------------
      1          6           0        1.020214    2.704475   -0.163631
      2          6           0        1.075194    1.337812   -0.431769
      3          6           0       -0.132905    0.663393   -0.564167
      4          7           0       -1.294773    1.308438   -0.413298
      5          6           0       -1.370615    2.621952   -0.140723
      6          6           0       -0.208440    3.356897   -0.023568
      7          6           0        2.370948    0.565024   -0.525431
      8          7           0        2.471748   -0.388317    0.591659
      9          6           0        3.378724   -1.444628    0.129683
     10          6           0        2.889439   -1.707112   -1.288621
     11          6           0        2.528910   -0.299753   -1.804757
     12          8           0       -3.152442   -0.609119   -0.155451
     13          8           0       -2.002618   -0.495053    2.228695
     14          8           0        0.163941   -1.854629    1.429114
     15          1           0        3.307166   -2.315447    0.791904
     16          1           0        3.642268   -2.202576   -1.909592
     17          1           0        1.997907   -2.346132   -1.259983
     18          1           0        3.328235    0.114857   -2.428267
     19          1           0        1.619033   -0.306503   -2.415359
     20          1           0        4.428151   -1.093427    0.129341
     21          1           0        3.201945    1.292560   -0.471462
     22          1           0       -0.206721   -0.399888   -0.787909
     23          1           0       -2.366430    3.040090   -0.020822
     24          1           0       -0.261805    4.421658    0.190075
     25          1           0        1.946665    3.268919   -0.053606
     26          6           0        2.869884    0.228913    1.849180
     27          1           0       -2.159258    0.715626   -0.438889
     28          1           0        0.944882   -1.347826    1.118327
     29          1           0       -0.188241   -2.291030    0.637521
     30          1           0       -2.968289   -0.672045    0.811091
     31          1           0       -4.119456   -0.616772   -0.288209
     32          1           0       -2.279998   -0.724398    3.118176
     33          1           0       -1.167138   -0.994303    2.061083
     34          8           0       -1.164240   -2.336430   -1.030838
     35          1           0       -2.029521   -1.930616   -0.837656
     36          1           0       -1.337419   -3.131824   -1.539102
     37          1           0        2.923967   -0.538059    2.630275
     38          1           0        2.121967    0.971102    2.157360
     39          1           0        3.854346    0.725864    1.772501
     40          8           0       -5.866179   -0.550410   -0.611326
     41          1           0       -6.279414   -0.952785   -1.380022
     42          1           0       -6.547477   -0.524596    0.065964
 ---------------------------------------------------------------------

 SCF Done:  E(RwB97XD) =  -881.472342616     A.U. after    1 cycles

 The electronic state is 1-A.
 Alpha  occ. eigenvalues --  -19.40699 -19.38795 -19.38646 -19.37168 -19.35706
 Alpha  occ. eigenvalues --  -14.67261 -14.56888 -10.50582 -10.49939 -10.47282
 Alpha  occ. eigenvalues --  -10.46490 -10.46413 -10.45664 -10.42300 -10.42222
 Alpha  occ. eigenvalues --  -10.40852 -10.39787  -1.25618  -1.25069  -1.23506
 Alpha  occ. eigenvalues --   -1.22468  -1.21415  -1.19615  -1.16413  -1.07745
 Alpha  occ. eigenvalues --   -1.04213  -0.99806  -0.95336  -0.90150  -0.89123
 Alpha  occ. eigenvalues --   -0.87964  -0.82044  -0.79113  -0.78539  -0.75658
 Alpha  occ. eigenvalues --   -0.75362  -0.74312  -0.74145  -0.72849  -0.72367
 Alpha  occ. eigenvalues --   -0.71525  -0.69730  -0.68852  -0.68554  -0.67484
 Alpha  occ. eigenvalues --   -0.64808  -0.64074  -0.63971  -0.62880  -0.61779
 Alpha  occ. eigenvalues --   -0.60590  -0.60090  -0.59170  -0.58387  -0.58079
 Alpha  occ. eigenvalues --   -0.56180  -0.55779  -0.55388  -0.55009  -0.53818
 Alpha  occ. eigenvalues --   -0.53033  -0.52943  -0.52580  -0.51884  -0.51602
 Alpha  occ. eigenvalues --   -0.50842  -0.49738  -0.48426  -0.43010
 Alpha virt. eigenvalues --   -0.13323  -0.10464  -0.06530  -0.05266  -0.04538
 Alpha virt. eigenvalues --   -0.03973  -0.03916  -0.03101  -0.02771  -0.02440
 Alpha virt. eigenvalues --   -0.01766  -0.01269  -0.01161  -0.00464  -0.00310

 Mulliken charges:
               1
     1  C    1.216921
     2  C    0.973646
     3  C    0.567985
     4  N    0.227140
     5  C    0.821035
     6  C    0.374233
     7  C    0.942512
     8  N   -1.290294
     9  C    1.411682
    10  C    0.843981
    11  C    1.212069
    12  O   -0.770953
    13  O   -0.339711
    14  O   -0.587139
    15  H   -0.496536
    16  H   -0.354432
    17  H   -0.255313
    18  H   -0.465178
    19  H   -0.440964
    20  H   -0.458557
    21  H   -0.788247
    22  H   -1.349229
    23  H   -0.707031
    24  H   -0.589950
    25  H   -0.902215
    26  C    0.987060
    27  H    0.097599
    28  H    0.324169
    29  H    0.295624
    30  H    0.404125
    31  H    0.255669
    32  H    0.139068
    33  H    0.282015
    34  O   -0.474590
    35  H    0.240790
    36  H    0.231814
    37  H   -0.193540
    38  H   -0.130940
    39  H   -0.237808
    40  O   -0.284066
    41  H    0.128678
    42  H    0.138879
 Sum of Mulliken charges =   1.00000

 Dipole moment (field-independent basis, Debye):
    X=             -5.1586    Y=              2.8684    Z=             -1.4933  Tot=              6.0884
 Quadrupole moment (field-independent basis, Debye-Ang):
   XX=            -28.1100   YY=            -74.4455   ZZ=            -93.7620
   XY=              7.6446   XZ=              1.6343   YZ=              6.1027

  Exact polarizability: 193.827  -9.992 179.993  -0.605   7.124 141.033
 Approx polarizability: 199.619  -3.061 195.782  -0.881   9.075 157.883

                      1                      2                      3
                      A                      A                      A
 Frequencies --     10.5103                28.2911                32.2347
 Red. masses --      3.7335                 5.3408                 3.9623
 Frc consts  --      0.0002                 0.0025                 0.0024
 IR Inten    --      1.3016                 0.2212                 0.7290

                      4                      5                      6
                      A                      A                      A
 Frequencies --     41.3818                45.4083                50.8808
 Red. masses --      3.2959                 2.4312                 1.5120
 Frc consts  --      0.0033                 0.0030                 0.0023
 IR Inten    --      0.0767                 1.6624                 7.1649

                      7                      8                      9
                      A                      A                      A
 Frequencies --     60.0310                75.4134                78.9252
 Red. masses --      3.3197                 4.0782                 5.3019
 Frc consts  --      0.0070                 0.0137                 0.0195
 IR Inten    --      4.5264                 1.7579                 1.1701

                     10                     11                     12
                      A                      A                      A
 Frequencies --     93.0233               108.5171               120.5657
 Red. masses --      4.3598                 4.9266                 4.3996
 Frc consts  --      0.0222                 0.0342                 0.0377
 IR Inten    --      1.7259                 1.3435                 2.9075

                     13                     14                     15
                      A                      A                      A
 Frequencies --    153.5423               161.5818               192.7969
 Red. masses --      4.9257                 5.2350                 5.4941
 Frc consts  --      0.0684                 0.0805                 0.1203
 IR Inten    --     14.6899                 4.4649                 9.7289

                     16                     17                     18
                      A                      A                      A
 Frequencies --    201.3922               209.5448               210.9182
 Red. masses --      2.8077                 1.1830                 4.9069
 Frc consts  --      0.0671                 0.0306                 0.1286
 IR Inten    --      3.6647               183.4805                27.0424

                     19                     20                     21
                      A                      A                      A
 Frequencies --    215.0546               245.5436               256.4701
 Red. masses --      1.9714                 1.1474                 1.1920
 Frc consts  --      0.0537                 0.0408                 0.0462
 IR Inten    --      3.9966                84.1183                 4.4924

                     22                     23                     24
                      A                      A                      A
 Frequencies --    266.3142               271.2003               285.6377
 Red. masses --      2.9276                 3.1859                 3.4968
 Frc consts  --      0.1223                 0.1381                 0.1681
 IR Inten    --      1.2238                26.8649                37.4319

                     25                     26                     27
                      A                      A                      A
 Frequencies --    294.0783               314.4921               329.0283
 Red. masses --      1.2944                 4.2713                 1.7814
 Frc consts  --      0.0660                 0.2489                 0.1136
 IR Inten    --     55.4132                35.8092                14.6533

                     28                     29                     30
                      A                      A                      A
 Frequencies --    333.2040               389.3756               399.3444
 Red. masses --      2.4835                 2.7651                 2.8546
 Frc consts  --      0.1625                 0.2470                 0.2682
 IR Inten    --      7.8034                14.9184                 0.7761

                     31                     32                     33
                      A                      A                      A
 Frequencies --    421.1214               439.6592               504.8128
 Red. masses --      3.0288                 1.1032                 1.0822
 Frc consts  --      0.3165                 0.1256                 0.1625
 IR Inten    --      3.9213                20.9201               107.4380

                     34                     35                     36
                      A                      A                      A
 Frequencies --    558.3631               579.3984               604.5752
 Red. masses --      3.6622                 1.9642                 1.2145
 Frc consts  --      0.6727                 0.3885                 0.2616
 IR Inten    --      1.2611                 9.8470                 4.8101

                     37                     38                     39
                      A                      A                      A
 Frequencies --    626.7442               637.1026               642.3977
 Red. masses --      1.8986                 2.0533                 2.6800
 Frc consts  --      0.4394                 0.4910                 0.6516
 IR Inten    --     42.9141                77.7549                28.8942

                     40                     41                     42
                      A                      A                      A
 Frequencies --    653.6256               697.6981               718.4748
 Red. masses --      3.1634                 1.1214                 1.7121
 Frc consts  --      0.7963                 0.3216                 0.5207
 IR Inten    --      2.1668                53.7968                37.9177

                     43                     44                     45
                      A                      A                      A
 Frequencies --    749.7654               780.4094               787.4833
 Red. masses --      1.0957                 1.6816                 1.2097
 Frc consts  --      0.3629                 0.6034                 0.4420
 IR Inten    --    134.2213                51.4342                81.6188

                     46                     47                     48
                      A                      A                      A
 Frequencies --    815.6890               833.3026               865.2245
 Red. masses --      1.1931                 1.3596                 1.5241
 Frc consts  --      0.4677                 0.5562                 0.6722
 IR Inten    --    133.5976                46.0776                10.6593

                     49                     50                     51
                      A                      A                      A
 Frequencies --    868.5549               912.7377               934.3834
 Red. masses --      1.3565                 1.8735                 2.9231
 Frc consts  --      0.6029                 0.9196                 1.5037
 IR Inten    --      7.2461                29.2131                 5.3596

                     52                     53                     54
                      A                      A                      A
 Frequencies --    959.5222               978.3809               986.2643
 Red. masses --      2.1884                 1.4579                 1.4628
 Frc consts  --      1.1871                 0.8222                 0.8383
 IR Inten    --      5.3985                 5.5551                17.4764

                     55                     56                     57
                      A                      A                      A
 Frequencies --    996.7496              1005.7906              1032.9515
 Red. masses --      1.1368                 1.5839                 1.4321
 Frc consts  --      0.6654                 0.9441                 0.9003
 IR Inten    --     82.1340                 7.1456                 2.1596

                     58                     59                     60
                      A                      A                      A
 Frequencies --   1047.3940              1062.9549              1074.2472
 Red. masses --      3.4539                 1.9175                 2.1310
 Frc consts  --      2.2324                 1.2765                 1.4489
 IR Inten    --      0.5686                19.2036                 4.2246

                     61                     62                     63
                      A                      A                      A
 Frequencies --   1092.0971              1106.1195              1139.8317
 Red. masses --      2.1735                 1.9548                 1.2649
 Frc consts  --      1.5274                 1.4091                 0.9682
 IR Inten    --      5.5986                 6.0314                 4.8348

                     64                     65                     66
                      A                      A                      A
 Frequencies --   1147.8580              1183.0549              1193.5519
 Red. masses --      1.5012                 1.5627                 1.1111
 Frc consts  --      1.1654                 1.2886                 0.9326
 IR Inten    --      9.4713                10.0911                38.9760

                     67                     68                     69
                      A                      A                      A
 Frequencies --   1212.8493              1223.4878              1238.9423
 Red. masses --      1.4591                 1.4127                 1.8472
 Frc consts  --      1.2646                 1.2460                 1.6705
 IR Inten    --     10.1304                 4.1959                22.6267

                     70                     71                     72
                      A                      A                      A
 Frequencies --   1257.2880              1271.1895              1273.5341
 Red. masses --      1.7040                 2.1371                 1.4647
 Frc consts  --      1.5871                 2.0347                 1.3996
 IR Inten    --      3.5048                19.0590                 7.3532

                     73                     74                     75
                      A                      A                      A
 Frequencies --   1311.1935              1331.7115              1339.9288
 Red. masses --      1.3077                 2.0433                 1.3565
 Frc consts  --      1.3246                 2.1350                 1.4349
 IR Inten    --      1.2251                29.0154                 0.7177

                     76                     77                     78
                      A                      A                      A
 Frequencies --   1352.4375              1381.0362              1382.3880
 Red. masses --      1.4702                 1.9108                 1.6862
 Frc consts  --      1.5844                 2.1472                 1.8985
 IR Inten    --      1.6882                 9.2772                 6.6347

                     79                     80                     81
                      A                      A                      A
 Frequencies --   1391.7081              1437.4526              1450.9299
 Red. masses --      1.6446                 1.6360                 1.2207
 Frc consts  --      1.8767                 1.9917                 1.5140
 IR Inten    --      2.0474                25.2361                 3.4680

                     82                     83                     84
                      A                      A                      A
 Frequencies --   1482.9288              1484.9786              1490.8592
 Red. masses --      1.0489                 1.0796                 1.0666
 Frc consts  --      1.3590                 1.4027                 1.3968
 IR Inten    --     10.5699                 7.9694                 8.4714

                     85                     86                     87
                      A                      A                      A
 Frequencies --   1503.8083              1515.5878              1523.3070
 Red. masses --      1.1142                 1.4252                 1.4596
 Frc consts  --      1.4845                 1.9288                 1.9956
 IR Inten    --      8.5278                29.1187                18.0379

                     88                     89                     90
                      A                      A                      A
 Frequencies --   1628.5710              1636.1220              1646.5127
 Red. masses --      2.0795                 1.0866                 1.0988
 Frc consts  --      3.2495                 1.7138                 1.7551
 IR Inten    --     49.8560               135.9177                32.3292

                     91                     92                     93
                      A                      A                      A
 Frequencies --   1657.8414              1670.2623              1697.3586
 Red. masses --      1.0752                 1.1136                 1.1529
 Frc consts  --      1.7411                 1.8305                 1.9570
 IR Inten    --     83.6951                24.2497                15.6103

                     94                     95                     96
                      A                      A                      A
 Frequencies --   1710.2584              1716.6043              2986.7049
 Red. masses --      3.0118                 2.9396                 1.0765
 Frc consts  --      5.1904                 5.1037                 5.6580
 IR Inten    --     26.0849                12.7568                21.7886

                     97                     98                     99
                      A                      A                      A
 Frequencies --   2989.4859              2993.5148              3012.8766
 Red. masses --      1.0778                 1.0505                 1.0973
 Frc consts  --      5.6752                 5.5464                 5.8685
 IR Inten    --     57.9088                80.5019              1518.8379

                    100                    101                    102
                      A                      A                      A
 Frequencies --   3086.3951              3097.8525              3099.2418
 Red. masses --      1.0654                 1.0641                 1.0873
 Frc consts  --      5.9795                 6.0169                 6.1534
 IR Inten    --     15.7996                20.4833                20.0255

                    103                    104                    105
                      A                      A                      A
 Frequencies --   3127.6624              3143.4906              3147.7339
 Red. masses --      1.0936                 1.1044                 1.1023
 Frc consts  --      6.3029                 6.4300                 6.4350
 IR Inten    --     13.4409                 4.6298                11.0774

                    106                    107                    108
                      A                      A                      A
 Frequencies --   3161.8220              3208.9978              3223.9980
 Red. masses --      1.1039                 1.0928                 1.0978
 Frc consts  --      6.5023                 6.6303                 6.7231
 IR Inten    --     26.9045                 0.7809                74.6543

                    109                    110                    111
                      A                      A                      A
 Frequencies --   3246.5399              3264.5789              3352.7808
 Red. masses --      1.0931                 1.1001                 1.0651
 Frc consts  --      6.7885                 6.9079                 7.0539
 IR Inten    --      1.0069                 2.4117               999.7617

                    112                    113                    114
                      A                      A                      A
 Frequencies --   3451.1051              3492.3574              3601.6787
 Red. masses --      1.0613                 1.0641                 1.0736
 Frc consts  --      7.4471                 7.6467                 8.2055
 IR Inten    --    831.1035               408.5110              1453.5055

                    115                    116                    117
                      A                      A                      A
 Frequencies --   3644.4767              3745.4165              3876.1746
 Red. masses --      1.0593                 1.0680                 1.0454
 Frc consts  --      8.2896                 8.8275                 9.2538
 IR Inten    --     94.9264               333.0680                27.8261

                    118                    119                    120
                      A                      A                      A
 Frequencies --   3945.3199              3946.8411              3979.9544
 Red. masses --      1.0671                 1.0704                 1.0827
 Frc consts  --      9.7862                 9.8240                10.1048
 IR Inten    --    104.7622               103.6961               113.7000

 - Thermochemistry -
 -------------------
 Temperature   298.150 Kelvin.  Pressure   1.00000 Atm.
 Atom     1 has atomic number  6 and mass  12.00000

 Molecular mass:   253.17635 amu.
 Principal axes and moments of inertia in atomic units:
                           1         2         3
     Eigenvalues --  3478.843747069.318648348.72977
           X            0.99999   0.00260   0.00188
           Y           -0.00264   0.99977   0.02115
           Z           -0.00182  -0.02115   0.99977
 This molecule is an asymmetric top.
 Rotational symmetry number  1.
 Warning -- assumption of classical behavior for rotation
           may cause significant error
 Rotational temperatures (Kelvin)      0.02490     0.01225     0.01037
 Rotational constants (GHZ):           0.51878     0.25529     0.21617
 Zero-point vibrational energy     969938.6 (Joules/Mol)
                                  231.82089 (Kcal/Mol)
 Warning -- explicit consideration of  36 degrees of freedom as
           vibrations may cause significant error
 Vibrational temperatures:     15.12    40.70    46.38    59.54    65.33
          (Kelvin)             73.21    86.37   108.50   113.56   133.84
                              156.13   173.47   220.91   232.48   277.39
                              289.76   301.49   303.46   309.42   353.28
                              369.00   383.17   390.20   410.97   423.11
                              452.48   473.40   479.41   560.22   574.57
                              605.90   632.57   726.31   803.36   833.63
                              869.85   901.75   916.65   924.27   940.42
                             1003.83  1033.72  1078.75  1122.83  1133.01
                             1173.59  1198.94  1244.87  1249.66  1313.23
                             1344.37  1380.54  1407.67  1419.01  1434.10
                             1447.11  1486.19  1506.97  1529.36  1545.60
                             1571.28  1591.46  1639.96  1651.51  1702.15
                             1717.25  1745.02  1760.33  1782.56  1808.96
                             1828.96  1832.33  1886.51  1916.04  1927.86
                             1945.86  1987.00  1988.95  2002.36  2068.17
                             2087.56  2133.60  2136.55  2145.01  2163.64
                             2180.59  2191.70  2343.15  2354.01  2368.96
                             2385.26  2403.13  2442.12  2460.68  2469.81
                             4297.20  4301.20  4307.00  4334.86  4440.63
                             4457.12  4459.12  4500.01  4522.78  4528.89
                             4549.16  4617.03  4638.61  4671.05  4697.00
                             4823.90  4965.37  5024.72  5182.01  5243.59
                             5388.82  5576.95  5676.44  5678.62  5726.27

 Zero-point correction=                           0.369430 (Hartree/Particle)
 Thermal correction to Energy=                    0.393924
 Thermal correction to Enthalpy=                  0.394868
 Thermal correction to Gibbs Free Energy=         0.312544
 Sum of electronic and zero-point Energies=           -881.102913
 Sum of electronic and thermal Energies=              -881.078419
 Sum of electronic and thermal Enthalpies=            -881.077475
 Sum of electronic and thermal Free Energies=         -881.159799

                     E (Thermal)             CV                S
                      KCal/Mol        Cal/Mol-Kelvin    Cal/Mol-Kelvin
 Total                  247.191             86.388            173.265
 Electronic               0.000              0.000              0.000
 Translational            0.889              2.981             42.487
 Rotational               0.889              2.981             33.684
 Vibrational            245.413             80.426             97.094
 Vibration     1          0.593              1.987              7.912
 Vibration     2          0.593              1.984              5.946
 Vibration     3          0.594              1.983              5.687
 Vibration     4          0.594              1.981              5.192
 Vibration     5          0.595              1.979              5.008
 Vibration     6          0.595              1.977              4.783
 Vibration     7          0.597              1.973              4.456
 Vibration     8          0.599              1.965              4.007
 Vibration     9          0.600              1.963              3.917
 Vibration    10          0.602              1.954              3.595
 Vibration    11          0.606              1.942              3.295
 Vibration    12          0.609              1.932              3.091
 Vibration    13          0.619              1.899              2.628
 Vibration    14          0.622              1.890              2.531
 Vibration    15          0.635              1.850              2.201
 Vibration    16          0.638              1.838              2.120
 Vibration    17          0.642              1.826              2.048
 Vibration    18          0.643              1.824              2.036
 Vibration    19          0.645              1.818              2.000
 Vibration    20          0.660              1.770              1.762
 Vibration    21          0.666              1.752              1.686
 Vibration    22          0.672              1.735              1.620
 Vibration    23          0.675              1.726              1.589
 Vibration    24          0.683              1.700              1.500
 Vibration    25          0.689              1.685              1.450
 Vibration    26          0.702              1.646              1.339
 Vibration    27          0.712              1.618              1.265
 Vibration    28          0.715              1.609              1.245
 Vibration    29          0.757              1.493              1.003
 Vibration    30          0.765              1.472              0.965
 Vibration    31          0.784              1.424              0.888
 Vibration    32          0.800              1.384              0.828
 Vibration    33          0.860              1.239              0.646
 Vibration    34          0.914              1.121              0.527
 Vibration    35          0.936              1.076              0.486
 Vibration    36          0.963              1.022              0.442

                           ! Non-Optimized Parameters !
 Normal termination of Gaussian 16 at Thu Dec  8 17:52:00 2022.
