 Gaussian 16, Revision A.03,
 Gaussian 16:  ES64L-G16RevA.03 25-Dec-2016

 ---------------------------------------------
 # wB97XD/aug-cc-pVDZ opt freq temperature=130
 ---------------------------------------------

 --------
 Nicotine
 --------
 Symbolic Z-matrix:
 Charge =  1 Multiplicity = 1

 SCF Done:  E(RwB97XD) =  -881.477547443     A.U. after   15 cycles
 SCF Done:  E(RwB97XD) =  -881.479033751     A.U. after   12 cycles
 SCF Done:  E(RwB97XD) =  -881.479179114     A.U. after   13 cycles
 SCF Done:  E(RwB97XD) =  -881.479244149     A.U. after   12 cycles
 SCF Done:  E(RwB97XD) =  -881.479322025     A.U. after   12 cycles
 SCF Done:  E(RwB97XD) =  -881.479379818     A.U. after   12 cycles
 SCF Done:  E(RwB97XD) =  -881.479421298     A.U. after   13 cycles
 SCF Done:  E(RwB97XD) =  -881.479538802     A.U. after   12 cycles
 SCF Done:  E(RwB97XD) =  -881.479612965     A.U. after   13 cycles
 SCF Done:  E(RwB97XD) =  -881.479652260     A.U. after   13 cycles
 SCF Done:  E(RwB97XD) =  -881.479743818     A.U. after   10 cycles
 SCF Done:  E(RwB97XD) =  -881.479744446     A.U. after   10 cycles
 SCF Done:  E(RwB97XD) =  -881.479744865     A.U. after    9 cycles
 SCF Done:  E(RwB97XD) =  -881.479745190     A.U. after    9 cycles
 SCF Done:  E(RwB97XD) =  -881.479745277     A.U. after    9 cycles
 SCF Done:  E(RwB97XD) =  -881.479745324     A.U. after    8 cycles
 SCF Done:  E(RwB97XD) =  -881.479745386     A.U. after    8 cycles
 SCF Done:  E(RwB97XD) =  -881.479745415     A.U. after    8 cycles
 SCF Done:  E(RwB97XD) =  -881.479745430     A.U. after    8 cycles
 Optimization completed.
    -- Stationary point found.
 Normal termination of Gaussian 16 at Thu Jul 15 15:21:50 2021.

 ----------------------------------------------------------------------
 #N Geom=AllCheck Guess=TCheck SCRF=Check GenChk RwB97XD/Aug-CC-pVDZ Fr
 eq
 ----------------------------------------------------------------------

 Structure from the checkpoint file:  "NicPyrNa5h24.chk"
 --------
 Nicotine
 --------
 Charge =  1 Multiplicity = 1

                         Standard orientation:
 ---------------------------------------------------------------------
 Center     Atomic      Atomic             Coordinates (Angstroms)
 Number     Number       Type             X           Y           Z
 ---------------------------------------------------------------------
      1          6           0        2.897285    0.892628   -0.846201
      2          6           0        1.662400    0.257948   -0.711539
      3          6           0        0.528028    1.065091   -0.623604
      4          7           0        0.567706    2.398591   -0.640810
      5          6           0        1.757262    2.995067   -0.768933
      6          6           0        2.947689    2.282825   -0.883224
      7          6           0        1.548583   -1.243036   -0.641884
      8          7           0        1.160853   -1.724671    0.731674
      9          6           0        0.850390   -3.171156    0.542695
     10          6           0        0.130560   -3.232925   -0.812342
     11          6           0        0.492868   -1.910862   -1.532315
     12          8           0       -1.165967   -0.839873    1.588035
     13          8           0       -0.997354    1.666835    2.625806
     14          8           0       -1.978215    2.810329    0.273933
     15          8           0       -2.659304    0.133786   -0.440875
     16          1           0        1.802381   -3.716271    0.533105
     17          1           0        0.455421   -4.112875   -1.375675
     18          1           0       -0.951899   -3.310297   -0.671265
     19          1           0       -0.389371   -1.267643   -1.622527
     20          1           0        0.891866   -2.066781   -2.538881
     21          1           0        0.248449   -3.512114    1.389986
     22          1           0        2.536020   -1.686713   -0.835253
     23          1           0       -0.463800    0.622714   -0.536617
     24          1           0        1.756060    4.085126   -0.781475
     25          1           0        3.893074    2.810044   -0.994303
     26          1           0        3.814810    0.307730   -0.926232
     27          6           0        2.141465   -1.441405    1.796064
     28          1           0        0.234156   -1.266857    1.019874
     29          1           0       -1.121396   -0.016670    2.118268
     30          1           0       -1.823735   -0.621138    0.891740
     31          1           0       -1.094963    2.909430   -0.158274
     32          1           0       -2.447819    3.637559    0.144906
     33          1           0       -2.693311    1.090651   -0.280048
     34          1           0       -3.551886   -0.143026   -0.711705
     35          1           0       -1.422621    2.202973    1.930659
     36          1           0       -1.338778    1.989407    3.462876
     37          8           0       -5.177157   -0.756778   -1.207931
     38          1           0       -5.567730   -0.668056   -2.080959
     39          1           0       -5.905748   -0.947468   -0.611711
     40          1           0        3.102672   -1.901869    1.540603
     41          1           0        1.767180   -1.856833    2.736480
     42          1           0        2.255842   -0.357908    1.896335
 ---------------------------------------------------------------------

 SCF Done:  E(RwB97XD) =  -881.479745430     A.U. after    1 cycles

 The electronic state is 1-A.
 Alpha  occ. eigenvalues --  -19.39244 -19.38511 -19.37441 -19.36529 -19.36315
 Alpha  occ. eigenvalues --  -14.66603 -14.57996 -10.48476 -10.46827 -10.46673
 Alpha  occ. eigenvalues --  -10.45712 -10.45605 -10.44441 -10.44332 -10.42876
 Alpha  occ. eigenvalues --  -10.42587 -10.42439  -1.23934  -1.23598  -1.23037
 Alpha  occ. eigenvalues --   -1.21793  -1.21016  -1.19715  -1.17625  -1.05408
 Alpha  occ. eigenvalues --   -1.03227  -1.00487  -0.95791  -0.92925  -0.87637
 Alpha  occ. eigenvalues --   -0.85131  -0.84021  -0.81904  -0.76876  -0.74544
 Alpha  occ. eigenvalues --   -0.74009  -0.73523  -0.72891  -0.72305  -0.72011
 Alpha  occ. eigenvalues --   -0.71582  -0.70848  -0.68421  -0.68202  -0.65570
 Alpha  occ. eigenvalues --   -0.64137  -0.63879  -0.62538  -0.61942  -0.61521
 Alpha  occ. eigenvalues --   -0.61088  -0.60968  -0.59991  -0.59601  -0.58945
 Alpha  occ. eigenvalues --   -0.57884  -0.57286  -0.56470  -0.55620  -0.55113
 Alpha  occ. eigenvalues --   -0.53808  -0.52195  -0.52013  -0.50680  -0.50164
 Alpha  occ. eigenvalues --   -0.49923  -0.49206  -0.47470  -0.46022
 Alpha virt. eigenvalues --   -0.09023  -0.07902  -0.05913  -0.05377  -0.04612
 Alpha virt. eigenvalues --   -0.04155  -0.03694  -0.02966  -0.02732  -0.02390
 Alpha virt. eigenvalues --   -0.01826  -0.01571  -0.00935  -0.00767  -0.00343

 Mulliken charges:
               1
     1  C    1.196940
     2  C    0.849353
     3  C    1.138579
     4  N   -0.404551
     5  C    0.234297
     6  C    0.608927
     7  C    0.987566
     8  N   -1.223983
     9  C    1.291704
    10  C    0.758938
    11  C    1.151641
    12  O   -0.483835
    13  O   -0.323612
    14  O   -0.693166
    15  O   -0.454808
    16  H   -0.495345
    17  H   -0.244844
    18  H   -0.259900
    19  H   -0.336322
    20  H   -0.513318
    21  H   -0.509671
    22  H   -0.935879
    23  H   -1.282040
    24  H   -0.611102
    25  H   -0.629166
    26  H   -0.908937
    27  C    1.068239
    28  H    0.274360
    29  H    0.306989
    30  H    0.259396
    31  H    0.352593
    32  H    0.275684
    33  H    0.200496
    34  H    0.299005
    35  H    0.203867
    36  H    0.158168
    37  O   -0.279739
    38  H    0.136150
    39  H    0.135739
    40  H   -0.138810
    41  H   -0.099473
    42  H   -0.060134
 Sum of Mulliken charges =   1.00000

 Dipole moment (field-independent basis, Debye):
    X=             -0.1512    Y=             -1.2181    Z=             -0.1521  Tot=              1.2369
 Quadrupole moment (field-independent basis, Debye-Ang):
   XX=            -40.2758   YY=            -64.6485   ZZ=            -89.7067
   XY=             -6.7611   XZ=              5.5630   YZ=              1.9524

  Exact polarizability: 177.949   5.617 192.314  -2.280  -2.715 139.212
 Approx polarizability: 194.057   1.262 198.618  -3.105  -1.531 155.441

                      1                      2                      3
                      A                      A                      A
 Frequencies --     20.6991                22.9150                33.2699
 Red. masses --      4.8965                 4.5867                 4.9043
 Frc consts  --      0.0012                 0.0014                 0.0032
 IR Inten    --      1.4864                 1.6906                 0.1023

                      4                      5                      6
                      A                      A                      A
 Frequencies --     41.6992                50.6817                65.8768
 Red. masses --      3.7786                 2.3873                 4.1202
 Frc consts  --      0.0039                 0.0036                 0.0105
 IR Inten    --      1.3293                 0.9383                 4.4654

                      7                      8                      9
                      A                      A                      A
 Frequencies --     68.3637                88.8026                93.2677
 Red. masses --      4.3083                 5.5328                 5.5872
 Frc consts  --      0.0119                 0.0257                 0.0286
 IR Inten    --      1.1003                 2.4693                 4.0370

                     10                     11                     12
                      A                      A                      A
 Frequencies --     98.1011               105.6309               106.6581
 Red. masses --      5.9218                 1.0414                 3.9253
 Frc consts  --      0.0336                 0.0068                 0.0263
 IR Inten    --      2.1026                 9.5165                 2.6872

                     13                     14                     15
                      A                      A                      A
 Frequencies --    145.5466               153.1791               164.7640
 Red. masses --      2.2533                 1.1317                 6.0444
 Frc consts  --      0.0281                 0.0156                 0.0967
 IR Inten    --      7.4954               216.1684                 3.3977

                     16                     17                     18
                      A                      A                      A
 Frequencies --    188.0565               192.4231               220.0166
 Red. masses --      4.6337                 4.5832                 3.3460
 Frc consts  --      0.0966                 0.1000                 0.0954
 IR Inten    --     21.9270                23.3040                14.7676

                     19                     20                     21
                      A                      A                      A
 Frequencies --    221.8441               228.6545               234.6772
 Red. masses --      3.7950                 3.1322                 1.2565
 Frc consts  --      0.1100                 0.0965                 0.0408
 IR Inten    --      9.8267                15.2950                 0.1536

                     22                     23                     24
                      A                      A                      A
 Frequencies --    239.3671               253.4241               261.2677
 Red. masses --      1.2211                 1.2971                 2.8805
 Frc consts  --      0.0412                 0.0491                 0.1158
 IR Inten    --     18.3492                53.3206                 2.0920

                     25                     26                     27
                      A                      A                      A
 Frequencies --    277.3428               322.1334               332.0398
 Red. masses --      4.8268                 3.8964                 3.9683
 Frc consts  --      0.2187                 0.2382                 0.2578
 IR Inten    --     13.3361                 2.8951                 3.4761

                     28                     29                     30
                      A                      A                      A
 Frequencies --    346.4871               389.1973               417.1791
 Red. masses --      1.1607                 2.9576                 2.8884
 Frc consts  --      0.0821                 0.2640                 0.2962
 IR Inten    --     20.5333                 0.2327                 3.4030

                     31                     32                     33
                      A                      A                      A
 Frequencies --    444.4877               448.7470               538.6975
 Red. masses --      2.8855                 1.1578                 1.9372
 Frc consts  --      0.3359                 0.1374                 0.3312
 IR Inten    --     19.4436               103.5064                29.6417

                     34                     35                     36
                      A                      A                      A
 Frequencies --    544.0046               558.9926               567.4825
 Red. masses --      1.4406                 1.5592                 1.5838
 Frc consts  --      0.2512                 0.2870                 0.3005
 IR Inten    --     72.0318                10.5112                 3.4675

                     37                     38                     39
                      A                      A                      A
 Frequencies --    621.2926               635.6019               653.3594
 Red. masses --      1.1045                 3.4504                 5.6072
 Frc consts  --      0.2512                 0.8213                 1.4103
 IR Inten    --     83.1025                 7.7740                12.2512

                     40                     41                     42
                      A                      A                      A
 Frequencies --    679.4265               695.9581               707.1073
 Red. masses --      4.8944                 1.0816                 1.0668
 Frc consts  --      1.3312                 0.3087                 0.3143
 IR Inten    --      0.3713               130.0211                98.0482

                     43                     44                     45
                      A                      A                      A
 Frequencies --    738.7283               759.8308               792.0509
 Red. masses --      1.9379                 1.0461                 1.3128
 Frc consts  --      0.6231                 0.3559                 0.4852
 IR Inten    --     54.1865                15.0908                 4.2912

                     46                     47                     48
                      A                      A                      A
 Frequencies --    798.3838               820.4061               836.6195
 Red. masses --      1.0476                 2.0023                 1.7553
 Frc consts  --      0.3934                 0.7940                 0.7239
 IR Inten    --      4.7551                 8.1628                27.7355

                     49                     50                     51
                      A                      A                      A
 Frequencies --    884.7659               893.2360               921.2173
 Red. masses --      1.0903                 1.0881                 3.1228
 Frc consts  --      0.5029                 0.5115                 1.5614
 IR Inten    --     62.3480               252.9896                 6.3321

                     52                     53                     54
                      A                      A                      A
 Frequencies --    936.2218               951.1022               985.4628
 Red. masses --      2.4249                 1.9119                 1.3505
 Frc consts  --      1.2523                 1.0190                 0.7727
 IR Inten    --      5.9633                 3.1455                 1.2138

                     55                     56                     57
                      A                      A                      A
 Frequencies --    990.8442              1007.8476              1033.5614
 Red. masses --      1.7951                 1.5646                 1.4883
 Frc consts  --      1.0384                 0.9364                 0.9368
 IR Inten    --      5.4562                 4.7012                 1.8652

                     58                     59                     60
                      A                      A                      A
 Frequencies --   1047.4657              1058.3820              1062.7490
 Red. masses --      1.9052                 4.2802                 2.6329
 Frc consts  --      1.2316                 2.8249                 1.7521
 IR Inten    --     13.2824                 8.1316                 7.8424

                     61                     62                     63
                      A                      A                      A
 Frequencies --   1091.9674              1108.6583              1136.2415
 Red. masses --      2.2135                 2.3394                 1.2870
 Frc consts  --      1.5551                 1.6942                 0.9789
 IR Inten    --      3.4096                 3.7517                 5.9434

                     64                     65                     66
                      A                      A                      A
 Frequencies --   1154.5065              1164.4740              1218.5783
 Red. masses --      1.3960                 2.8924                 1.7741
 Frc consts  --      1.0963                 2.3109                 1.5521
 IR Inten    --      6.8479                15.7179                 2.4852

                     67                     68                     69
                      A                      A                      A
 Frequencies --   1224.5771              1237.1357              1249.0665
 Red. masses --      1.4857                 1.6629                 1.3227
 Frc consts  --      1.3127                 1.4995                 1.2159
 IR Inten    --      7.1816                 4.0172                11.9441

                     70                     71                     72
                      A                      A                      A
 Frequencies --   1269.6380              1287.4280              1300.7959
 Red. masses --      1.5323                 1.2247                 1.5226
 Frc consts  --      1.4553                 1.1959                 1.5180
 IR Inten    --      3.3773                 4.3719                 1.5177

                     73                     74                     75
                      A                      A                      A
 Frequencies --   1316.5934              1336.7897              1367.0525
 Red. masses --      3.5921                 1.3846                 1.2517
 Frc consts  --      3.6686                 1.4578                 1.3783
 IR Inten    --      2.1450                 1.2858                 3.1374

                     76                     77                     78
                      A                      A                      A
 Frequencies --   1381.0157              1393.6604              1411.1205
 Red. masses --      1.4402                 1.5701                 1.4505
 Frc consts  --      1.6184                 1.7968                 1.7017
 IR Inten    --      1.4770                 5.5161                 2.3438

                     79                     80                     81
                      A                      A                      A
 Frequencies --   1452.5127              1482.0493              1483.4382
 Red. masses --      1.1853                 1.9460                 1.1237
 Frc consts  --      1.4734                 2.5184                 1.4569
 IR Inten    --      2.6416                31.4785                 5.1232

                     82                     83                     84
                      A                      A                      A
 Frequencies --   1487.6152              1489.8244              1500.2506
 Red. masses --      1.0487                 1.0770                 1.0970
 Frc consts  --      1.3673                 1.4085                 1.4548
 IR Inten    --      2.8585                 2.0837                18.3346

                     85                     86                     87
                      A                      A                      A
 Frequencies --   1517.9575              1541.6879              1547.8397
 Red. masses --      1.1306                 1.6352                 1.3596
 Frc consts  --      1.5349                 2.2898                 1.9192
 IR Inten    --     18.9877                37.6789                34.1099

                     88                     89                     90
                      A                      A                      A
 Frequencies --   1630.0141              1647.1186              1654.5707
 Red. masses --      1.0857                 1.1263                 1.1321
 Frc consts  --      1.6996                 1.8003                 1.8260
 IR Inten    --    106.1998                10.2037                22.3565

                     91                     92                     93
                      A                      A                      A
 Frequencies --   1659.9850              1664.2606              1675.2627
 Red. masses --      2.0107                 1.0939                 1.5505
 Frc consts  --      3.2644                 1.7852                 2.5638
 IR Inten    --     83.5879                61.7154                45.5199

                     94                     95                     96
                      A                      A                      A
 Frequencies --   1691.0913              1731.9818              2626.5277
 Red. masses --      4.4887                 1.0681                 1.1025
 Frc consts  --      7.5631                 1.8877                 4.4811
 IR Inten    --     44.2388                49.7485              1517.2007

                     97                     98                     99
                      A                      A                      A
 Frequencies --   3071.3340              3076.1802              3096.6804
 Red. masses --      1.0836                 1.0359                 1.0634
 Frc consts  --      6.0225                 5.7754                 6.0081
 IR Inten    --      4.0729                 3.0851                 7.7542

                    100                    101                    102
                      A                      A                      A
 Frequencies --   3105.6004              3115.3216              3157.0590
 Red. masses --      1.0624                 1.0634                 1.1065
 Frc consts  --      6.0371                 6.0805                 6.4981
 IR Inten    --      6.8174                 9.7582                 1.1230

                    103                    104                    105
                      A                      A                      A
 Frequencies --   3169.1909              3177.4736              3179.2519
 Red. masses --      1.1060                 1.1066                 1.1069
 Frc consts  --      6.5449                 6.5830                 6.5916
 IR Inten    --      2.4387                 0.2155                 8.1364

                    106                    107                    108
                      A                      A                      A
 Frequencies --   3188.2772              3196.4314              3209.2294
 Red. masses --      1.1067                 1.0916                 1.0919
 Frc consts  --      6.6283                 6.5714                 6.6260
 IR Inten    --      1.3975                 3.9816                 6.1808

                    109                    110                    111
                      A                      A                      A
 Frequencies --   3231.8040              3237.7689              3350.8320
 Red. masses --      1.0918                 1.0983                 1.0665
 Frc consts  --      6.7188                 6.7835                 7.0553
 IR Inten    --     15.2915                 5.2211              1070.2318

                    112                    113                    114
                      A                      A                      A
 Frequencies --   3486.2873              3530.6062              3639.0324
 Red. masses --      1.0670                 1.0624                 1.0614
 Frc consts  --      7.6412                 7.8024                 8.2814
 IR Inten    --    701.8402               563.6335               533.5904

                    115                    116                    117
                      A                      A                      A
 Frequencies --   3663.5952              3745.7606              3880.0298
 Red. masses --      1.0502                 1.0816                 1.0452
 Frc consts  --      8.3046                 8.9411                 9.2709
 IR Inten    --    437.5898               653.0284                23.0743

                    118                    119                    120
                      A                      A                      A
 Frequencies --   3939.8589              3947.4952              3986.9922
 Red. masses --      1.0671                 1.0698                 1.0830
 Frc consts  --      9.7595                 9.8216                10.1430
 IR Inten    --    118.0145               113.3882               106.9831

 - Thermochemistry -
 -------------------
 Temperature   130.000 Kelvin.  Pressure   1.00000 Atm.
 Atom     1 has atomic number  6 and mass  12.00000

 Molecular mass:   253.17635 amu.
 Principal axes and moments of inertia in atomic units:
                           1         2         3
     Eigenvalues --  4785.836845622.188367774.41323
           X            0.99842  -0.05503   0.01175
           Y            0.05493   0.99845   0.00872
           Z           -0.01221  -0.00806   0.99989
 This molecule is an asymmetric top.
 Rotational symmetry number  1.
 Warning -- assumption of classical behavior for rotation
           may cause significant error
 Rotational temperatures (Kelvin)      0.01810     0.01541     0.01114
 Rotational constants (GHZ):           0.37710     0.32100     0.23214
 Zero-point vibrational energy     972043.5 (Joules/Mol)
                                  232.32397 (Kcal/Mol)
 Warning -- explicit consideration of  24 degrees of freedom as
           vibrations may cause significant error
 Vibrational temperatures:     29.78    32.97    47.87    60.00    72.92
          (Kelvin)             94.78    98.36   127.77   134.19   141.15
                              151.98   153.46   209.41   220.39   237.06
                              270.57   276.85   316.55   319.18   328.98
                              337.65   344.40   364.62   375.91   399.03
                              463.48   477.73   498.52   559.97   600.23
                              639.52   645.65   775.07   782.70   804.27
                              816.48   893.90   914.49   940.04   977.54
                             1001.33  1017.37  1062.87  1093.23  1139.58
                             1148.70  1180.38  1203.71  1272.98  1285.17
                             1325.43  1347.01  1368.42  1417.86  1425.60
                             1450.07  1487.06  1507.07  1522.78  1529.06
                             1571.10  1595.11  1634.80  1661.08  1675.42
                             1753.26  1761.89  1779.96  1797.13  1826.73
                             1852.32  1871.56  1894.28  1923.34  1966.88
                             1986.97  2005.17  2030.29  2089.84  2132.34
                             2134.34  2140.35  2143.53  2158.53  2184.00
                             2218.15  2227.00  2345.23  2369.84  2380.56
                             2388.35  2394.50  2410.33  2433.10  2491.94
                             3778.99  4418.96  4425.94  4455.43  4468.27
                             4482.25  4542.30  4559.76  4571.68  4574.23
                             4587.22  4598.95  4617.37  4649.85  4658.43
                             4821.10  5015.99  5079.75  5235.76  5271.10
                             5389.31  5582.50  5668.58  5679.57  5736.39

 Zero-point correction=                           0.370232 (Hartree/Particle)
 Thermal correction to Energy=                    0.376451
 Thermal correction to Enthalpy=                  0.376863
 Thermal correction to Gibbs Free Energy=         0.352923
 Sum of electronic and zero-point Energies=           -881.109514
 Sum of electronic and thermal Energies=              -881.103294
 Sum of electronic and thermal Enthalpies=            -881.102883
 Sum of electronic and thermal Free Energies=         -881.126823

                     E (Thermal)             CV                S
                      KCal/Mol        Cal/Mol-Kelvin    Cal/Mol-Kelvin
 Total                  236.227             50.166            115.558
 Electronic               0.000              0.000              0.000
 Translational            0.388              2.981             38.363
 Rotational               0.388              2.981             31.228
 Vibrational            235.452             44.205             45.967
 Vibration     1          0.259              1.979              4.920
 Vibration     2          0.260              1.977              4.719
 Vibration     3          0.261              1.965              3.984
 Vibration     4          0.263              1.952              3.541
 Vibration     5          0.265              1.936              3.162
 Vibration     6          0.270              1.901              2.659
 Vibration     7          0.271              1.895              2.588
 Vibration     8          0.279              1.835              2.100
 Vibration     9          0.281              1.820              2.010
 Vibration    10          0.283              1.803              1.919
 Vibration    11          0.287              1.776              1.786
 Vibration    12          0.288              1.772              1.769
 Vibration    13          0.312              1.608              1.242
 Vibration    14          0.317              1.573              1.160
 Vibration    15          0.326              1.517              1.048
 Vibration    16          0.345              1.402              0.854
 Vibration    17          0.349              1.380              0.822
 Vibration    18          0.375              1.240              0.647
 Vibration    19          0.377              1.231              0.637
 Vibration    20          0.383              1.196              0.600
 Vibration    21          0.389              1.166              0.569
 Vibration    22          0.394              1.142              0.546
 Vibration    23          0.409              1.072              0.483
 Vibration    24          0.417              1.033              0.451

                           ! Non-Optimized Parameters !
 Normal termination of Gaussian 16 at Thu Jul 15 16:55:02 2021.
