 Gaussian 16, Revision A.03,
 Gaussian 16:  ES64L-G16RevA.03 25-Dec-2016

 -----------------------------
 # wB97XD/aug-cc-pVDZ opt freq
 -----------------------------

 ----
 blah
 ----
 Symbolic Z-matrix:
 Charge =  1 Multiplicity = 1

 SCF Done:  E(RwB97XD) =  -881.464676989     A.U. after   16 cycles
 SCF Done:  E(RwB97XD) =  -881.465330405     A.U. after   15 cycles
 SCF Done:  E(RwB97XD) =  -881.465523949     A.U. after   14 cycles
 SCF Done:  E(RwB97XD) =  -881.465844752     A.U. after   12 cycles
 SCF Done:  E(RwB97XD) =  -881.465964227     A.U. after   12 cycles
 SCF Done:  E(RwB97XD) =  -881.466143426     A.U. after   12 cycles
 SCF Done:  E(RwB97XD) =  -881.465668807     A.U. after   14 cycles
 SCF Done:  E(RwB97XD) =  -881.466238251     A.U. after   14 cycles
 SCF Done:  E(RwB97XD) =  -881.466252664     A.U. after   11 cycles
 SCF Done:  E(RwB97XD) =  -881.466282293     A.U. after   11 cycles
 SCF Done:  E(RwB97XD) =  -881.466347085     A.U. after   10 cycles
 SCF Done:  E(RwB97XD) =  -881.466346875     A.U. after   10 cycles
 SCF Done:  E(RwB97XD) =  -881.466347467     A.U. after   10 cycles
 SCF Done:  E(RwB97XD) =  -881.466346778     A.U. after   10 cycles
 SCF Done:  E(RwB97XD) =  -881.466346513     A.U. after   10 cycles
 SCF Done:  E(RwB97XD) =  -881.466346376     A.U. after    8 cycles
 SCF Done:  E(RwB97XD) =  -881.466346244     A.U. after    8 cycles
 SCF Done:  E(RwB97XD) =  -881.466346197     A.U. after    7 cycles
 SCF Done:  E(RwB97XD) =  -881.466346173     A.U. after    7 cycles
 Optimization completed.
    -- Stationary point found.
 Normal termination of Gaussian 16 at Tue Dec  6 15:36:06 2022.

 ----------------------------------------------------------------------
 #N Geom=AllCheck Guess=TCheck SCRF=Check GenChk RwB97XD/Aug-CC-pVDZ Fr
 eq
 ----------------------------------------------------------------------

 Structure from the checkpoint file:  "/gscratch/scrubbed/gds001/Gau-26895.chk"
 ----
 blah
 ----
 Charge =  1 Multiplicity = 1

                         Standard orientation:
 ---------------------------------------------------------------------
 Center     Atomic      Atomic             Coordinates (Angstroms)
 Number     Number       Type             X           Y           Z
 ---------------------------------------------------------------------
      1          6           0        2.119789    1.853678    1.465881
      2          6           0        1.762356    0.867108    0.544605
      3          6           0        0.789860    1.194723   -0.393954
      4          7           0        0.222604    2.407334   -0.392705
      5          6           0        0.553632    3.367427    0.483393
      6          6           0        1.523325    3.114870    1.434739
      7          6           0        2.417732   -0.492899    0.549088
      8          7           0        1.467774   -1.605691    0.443205
      9          6           0        2.330857   -2.772441    0.210050
     10          6           0        3.368077   -2.275546   -0.807098
     11          6           0        3.376417   -0.738228   -0.630524
     12          8           0       -1.871478    2.473733   -1.960107
     13          8           0       -2.303795    0.093080   -1.002991
     14          8           0       -0.160242   -1.469531   -1.821053
     15          1           0        1.732635   -3.620643   -0.144720
     16          1           0        4.350840   -2.719154   -0.618971
     17          1           0        3.076761   -2.542777   -1.828645
     18          1           0        4.371765   -0.331554   -0.422671
     19          1           0        2.995423   -0.239236   -1.529921
     20          1           0        2.820369   -3.077964    1.153214
     21          1           0        2.982438   -0.584131    1.498435
     22          1           0        0.434719    0.504022   -1.156421
     23          1           0        0.020702    4.311001    0.396719
     24          1           0        1.797447    3.888182    2.148171
     25          1           0        2.873102    1.634052    2.223016
     26          6           0        0.592630   -1.753180    1.599631
     27          1           0       -0.558622    2.567201   -1.095401
     28          1           0        0.423174   -1.626477   -1.039187
     29          1           0       -0.155860   -2.267423   -2.353460
     30          1           0       -2.187410    1.560107   -1.724512
     31          1           0       -1.981834    2.592326   -2.905671
     32          1           0       -3.166200   -0.325776   -0.807244
     33          1           0       -1.713405   -0.605735   -1.331913
     34          8           0       -4.678301   -1.141820   -0.503753
     35          1           0       -5.162360   -1.104672    0.340002
     36          1           0       -5.347035   -1.220286   -1.187158
     37          1           0       -0.048270   -2.631078    1.459205
     38          1           0       -0.057199   -0.874745    1.695340
     39          1           0        1.166729   -1.882150    2.535399
     40          8           0       -6.045814   -1.075948    1.923824
     41          1           0       -6.634603   -0.367689    2.197229
     42          1           0       -6.396964   -1.876092    2.323452
 ---------------------------------------------------------------------

 SCF Done:  E(RwB97XD) =  -881.466346173     A.U. after    1 cycles

 The electronic state is 1-A.
 Alpha  occ. eigenvalues --  -19.38705 -19.37618 -19.37368 -19.35849 -19.34728
 Alpha  occ. eigenvalues --  -14.66396 -14.57444 -10.50151 -10.49585 -10.47051
 Alpha  occ. eigenvalues --  -10.46494 -10.46091 -10.45841 -10.42950 -10.42460
 Alpha  occ. eigenvalues --  -10.41014 -10.40134  -1.24877  -1.23042  -1.22065
 Alpha  occ. eigenvalues --   -1.21643  -1.20270  -1.18457  -1.16943  -1.07508
 Alpha  occ. eigenvalues --   -1.03840  -1.00021  -0.95311  -0.89732  -0.89046
 Alpha  occ. eigenvalues --   -0.88092  -0.81774  -0.79208  -0.78929  -0.74071
 Alpha  occ. eigenvalues --   -0.73967  -0.73407  -0.73194  -0.72315  -0.71338
 Alpha  occ. eigenvalues --   -0.71103  -0.70252  -0.69053  -0.67834  -0.66996
 Alpha  occ. eigenvalues --   -0.65017  -0.63797  -0.63233  -0.61728  -0.61116
 Alpha  occ. eigenvalues --   -0.60891  -0.59505  -0.58233  -0.57479  -0.56962
 Alpha  occ. eigenvalues --   -0.56729  -0.55917  -0.55154  -0.54111  -0.53472
 Alpha  occ. eigenvalues --   -0.52544  -0.51566  -0.51469  -0.51309  -0.50840
 Alpha  occ. eigenvalues --   -0.49347  -0.48846  -0.48366  -0.43809
 Alpha virt. eigenvalues --   -0.13008  -0.10147  -0.05679  -0.04873  -0.04448
 Alpha virt. eigenvalues --   -0.04348  -0.03267  -0.02922  -0.02570  -0.02431
 Alpha virt. eigenvalues --   -0.01672  -0.01444  -0.00994  -0.00752  -0.00561

 Mulliken charges:
               1
     1  C    1.185010
     2  C    0.821070
     3  C    0.542745
     4  N    0.008043
     5  C    0.698819
     6  C    0.386213
     7  C    1.424826
     8  N   -1.258901
     9  C    1.255757
    10  C    0.807494
    11  C    1.003844
    12  O   -0.483136
    13  O   -0.464204
    14  O   -0.427747
    15  H   -0.565755
    16  H   -0.272797
    17  H   -0.274327
    18  H   -0.509031
    19  H   -0.287800
    20  H   -0.563251
    21  H   -0.868119
    22  H   -1.209209
    23  H   -0.618513
    24  H   -0.563090
    25  H   -0.898638
    26  C    0.930115
    27  H    0.093288
    28  H    0.531871
    29  H    0.153569
    30  H    0.270627
    31  H    0.159088
    32  H    0.302116
    33  H    0.222217
    34  O   -0.330744
    35  H    0.211230
    36  H    0.127286
    37  H   -0.216194
    38  H   -0.109846
    39  H   -0.193152
    40  O   -0.312130
    41  H    0.146708
    42  H    0.144650
 Sum of Mulliken charges =   1.00000

 Dipole moment (field-independent basis, Debye):
    X=             -1.3974    Y=              1.6848    Z=              1.9993  Tot=              2.9645
 Quadrupole moment (field-independent basis, Debye-Ang):
   XX=            -29.6617   YY=            -65.6137   ZZ=            -80.9502
   XY=              8.8680   XZ=             -4.0421   YZ=              2.9590

  Exact polarizability: 169.786 -12.410 191.760  11.448   9.018 156.099
 Approx polarizability: 175.630 -10.369 196.522  17.126   9.709 179.542

                      1                      2                      3
                      A                      A                      A
 Frequencies --      7.5708                10.0736                22.9306
 Red. masses --      4.6787                 4.6799                 4.3699
 Frc consts  --      0.0002                 0.0003                 0.0014
 IR Inten    --      0.6587                 0.8362                 0.8472

                      4                      5                      6
                      A                      A                      A
 Frequencies --     30.3206                36.0035                58.4153
 Red. masses --      4.3590                 4.7840                 5.1699
 Frc consts  --      0.0024                 0.0037                 0.0104
 IR Inten    --      0.9211                 2.4916                 2.5287

                      7                      8                      9
                      A                      A                      A
 Frequencies --     61.6159                64.6582                73.9768
 Red. masses --      5.4473                 4.0998                 3.9731
 Frc consts  --      0.0122                 0.0101                 0.0128
 IR Inten    --      0.5497                 1.7534                 0.6595

                     10                     11                     12
                      A                      A                      A
 Frequencies --     86.6667                94.2212                95.9180
 Red. masses --      2.6244                 1.2462                 2.5394
 Frc consts  --      0.0116                 0.0065                 0.0138
 IR Inten    --      0.7285                25.6610                15.8186

                     13                     14                     15
                      A                      A                      A
 Frequencies --    117.6564               155.3619               164.2990
 Red. masses --      3.9011                 2.1435                 4.9619
 Frc consts  --      0.0318                 0.0305                 0.0789
 IR Inten    --      2.8296                 1.2641                 4.7671

                     16                     17                     18
                      A                      A                      A
 Frequencies --    178.7670               196.0799               201.1716
 Red. masses --      4.3385                 1.1757                 1.7491
 Frc consts  --      0.0817                 0.0266                 0.0417
 IR Inten    --     18.1745                90.8537               102.1347

                     19                     20                     21
                      A                      A                      A
 Frequencies --    202.3922               223.5707               235.9839
 Red. masses --      1.6102                 3.6969                 1.2593
 Frc consts  --      0.0389                 0.1089                 0.0413
 IR Inten    --     42.4480                50.0054                55.6996

                     22                     23                     24
                      A                      A                      A
 Frequencies --    241.1888               245.4169               258.2938
 Red. masses --      1.1180                 1.2722                 3.0648
 Frc consts  --      0.0383                 0.0451                 0.1205
 IR Inten    --     72.6787                 8.7258                29.5018

                     25                     26                     27
                      A                      A                      A
 Frequencies --    267.6938               275.9717               300.1533
 Red. masses --      3.3601                 4.8907                 1.3403
 Frc consts  --      0.1419                 0.2195                 0.0711
 IR Inten    --     16.3987                 4.6651                84.1706

                     28                     29                     30
                      A                      A                      A
 Frequencies --    310.3476               362.0522               396.4177
 Red. masses --      2.9183                 5.2360                 2.8197
 Frc consts  --      0.1656                 0.4044                 0.2611
 IR Inten    --     32.6295                17.1336                 9.3885

                     31                     32                     33
                      A                      A                      A
 Frequencies --    409.9375               418.2587               419.9202
 Red. masses --      1.0605                 3.0928                 2.9192
 Frc consts  --      0.1050                 0.3188                 0.3033
 IR Inten    --     20.3219                 7.6891                 6.8071

                     34                     35                     36
                      A                      A                      A
 Frequencies --    523.3656               534.8121               553.9260
 Red. masses --      1.1705                 1.4104                 1.9836
 Frc consts  --      0.1889                 0.2377                 0.3586
 IR Inten    --     37.0277                18.5289                15.4172

                     37                     38                     39
                      A                      A                      A
 Frequencies --    584.9443               632.1593               640.5137
 Red. masses --      2.7977                 1.8225                 2.0065
 Frc consts  --      0.5640                 0.4291                 0.4850
 IR Inten    --      5.2437                38.9815                38.2988

                     40                     41                     42
                      A                      A                      A
 Frequencies --    649.3714               673.6936               701.7724
 Red. masses --      2.5044                 5.2036                 1.2182
 Frc consts  --      0.6222                 1.3915                 0.3535
 IR Inten    --     18.6192                10.1388               148.5599

                     43                     44                     45
                      A                      A                      A
 Frequencies --    714.7349               725.3804               782.1031
 Red. masses --      1.2648                 1.3463                 1.4175
 Frc consts  --      0.3807                 0.4174                 0.5109
 IR Inten    --     60.9268               156.8609                 0.9606

                     46                     47                     48
                      A                      A                      A
 Frequencies --    830.1509               837.0463               839.6587
 Red. masses --      1.0565                 1.7420                 1.9601
 Frc consts  --      0.4290                 0.7191                 0.8142
 IR Inten    --     70.4323                25.8576                 9.9765

                     49                     50                     51
                      A                      A                      A
 Frequencies --    865.2134               934.7150               940.2651
 Red. masses --      1.0771                 2.1115                 2.2717
 Frc consts  --      0.4750                 1.0869                 1.1833
 IR Inten    --     30.9778                 3.5415                22.7684

                     52                     53                     54
                      A                      A                      A
 Frequencies --    954.2579               979.1811               981.7091
 Red. masses --      2.4283                 1.2293                 1.5922
 Frc consts  --      1.3028                 0.6944                 0.9041
 IR Inten    --     15.4990                52.1836                 1.8955

                     55                     56                     57
                      A                      A                      A
 Frequencies --   1000.9407              1012.9512              1034.5372
 Red. masses --      1.2437                 1.5843                 1.3780
 Frc consts  --      0.7342                 0.9578                 0.8690
 IR Inten    --     75.6371                29.3421                 1.1593

                     58                     59                     60
                      A                      A                      A
 Frequencies --   1044.9743              1053.6336              1075.3699
 Red. masses --      4.1914                 2.3471                 1.8514
 Frc consts  --      2.6966                 1.5352                 1.2614
 IR Inten    --      4.6429                 1.4730                17.6400

                     61                     62                     63
                      A                      A                      A
 Frequencies --   1093.9466              1118.2338              1143.6801
 Red. masses --      2.1602                 2.3249                 1.2849
 Frc consts  --      1.5231                 1.7128                 0.9902
 IR Inten    --      4.0253                10.0130                 3.8748

                     64                     65                     66
                      A                      A                      A
 Frequencies --   1149.6657              1198.7767              1214.7470
 Red. masses --      1.5121                 1.8167                 1.3036
 Frc consts  --      1.1775                 1.5382                 1.1333
 IR Inten    --      6.9105                15.6799                 8.4942

                     67                     68                     69
                      A                      A                      A
 Frequencies --   1226.1295              1243.6685              1251.6074
 Red. masses --      1.4587                 1.6712                 1.1170
 Frc consts  --      1.2921                 1.5229                 1.0310
 IR Inten    --      5.3602                 5.8221                34.7102

                     70                     71                     72
                      A                      A                      A
 Frequencies --   1259.3466              1264.0155              1292.2998
 Red. masses --      1.9020                 1.6740                 1.4346
 Frc consts  --      1.7772                 1.5759                 1.4115
 IR Inten    --     26.4798                 5.3614                 0.8599

                     73                     74                     75
                      A                      A                      A
 Frequencies --   1298.0734              1328.2437              1331.4989
 Red. masses --      1.5084                 1.3825                 2.1915
 Frc consts  --      1.4975                 1.4370                 2.2891
 IR Inten    --     12.1347                 4.4137                17.1386

                     76                     77                     78
                      A                      A                      A
 Frequencies --   1356.4520              1378.8748              1381.4878
 Red. masses --      1.3655                 1.7686                 1.5222
 Frc consts  --      1.4804                 1.9812                 1.7117
 IR Inten    --      5.0790                14.9827                 4.3712

                     79                     80                     81
                      A                      A                      A
 Frequencies --   1403.6093              1442.2998              1454.1333
 Red. masses --      1.8587                 1.5174                 1.2466
 Frc consts  --      2.1575                 1.8597                 1.5531
 IR Inten    --      3.0536                18.7680                 9.3630

                     82                     83                     84
                      A                      A                      A
 Frequencies --   1482.0417              1484.0708              1488.6806
 Red. masses --      1.0465                 1.0727                 1.0698
 Frc consts  --      1.3542                 1.3920                 1.3968
 IR Inten    --     16.4043                 6.3673                 5.5882

                     85                     86                     87
                      A                      A                      A
 Frequencies --   1505.3469              1517.9513              1526.4320
 Red. masses --      1.0896                 1.6045                 1.3562
 Frc consts  --      1.4548                 2.1782                 1.8618
 IR Inten    --     11.1240                35.3889                12.1974

                     88                     89                     90
                      A                      A                      A
 Frequencies --   1610.3947              1626.8361              1636.2581
 Red. masses --      1.1843                 1.0989                 1.8531
 Frc consts  --      1.8096                 1.7136                 2.9231
 IR Inten    --    103.7088               107.2512                 8.7152

                     91                     92                     93
                      A                      A                      A
 Frequencies --   1655.4912              1661.9567              1689.6457
 Red. masses --      1.0992                 1.0806                 1.2068
 Frc consts  --      1.7749                 1.7586                 2.0299
 IR Inten    --     17.7731                23.0504                20.2784

                     94                     95                     96
                      A                      A                      A
 Frequencies --   1709.0164              1723.4896              2773.0602
 Red. masses --      3.4340                 2.2572                 1.1097
 Frc consts  --      5.9093                 3.9503                 5.0275
 IR Inten    --     11.8836                35.3580              2125.1232

                     97                     98                     99
                      A                      A                      A
 Frequencies --   2960.8633              2992.2972              2995.2408
 Red. masses --      1.0832                 1.0527                 1.0696
 Frc consts  --      5.5949                 5.5537                 5.6536
 IR Inten    --     43.5420                29.5657                89.6510

                    100                    101                    102
                      A                      A                      A
 Frequencies --   3088.1296              3102.8721              3110.7598
 Red. masses --      1.0628                 1.0676                 1.0850
 Frc consts  --      5.9715                 6.0558                 6.1860
 IR Inten    --     14.8293                15.8601                17.5574

                    103                    104                    105
                      A                      A                      A
 Frequencies --   3116.3062              3142.7673              3153.3522
 Red. masses --      1.0895                 1.1053                 1.1040
 Frc consts  --      6.2339                 6.4322                 6.4679
 IR Inten    --     21.5422                 1.7340                12.4597

                    106                    107                    108
                      A                      A                      A
 Frequencies --   3161.8188              3213.3605              3228.3872
 Red. masses --      1.1061                 1.0924                 1.0977
 Frc consts  --      6.5152                 6.6456                 6.7405
 IR Inten    --     23.3930                 0.3826                19.1133

                    109                    110                    111
                      A                      A                      A
 Frequencies --   3243.7554              3258.4404              3263.3045
 Red. masses --      1.0927                 1.1008                 1.0657
 Frc consts  --      6.7742                 6.8859                 6.6868
 IR Inten    --      1.0666                 1.6594              1282.1741

                    112                    113                    114
                      A                      A                      A
 Frequencies --   3334.2444              3556.3120              3671.5837
 Red. masses --      1.0673                 1.0591                 1.0580
 Frc consts  --      6.9906                 7.8923                 8.4034
 IR Inten    --   1024.3835               953.0526               740.5263

                    115                    116                    117
                      A                      A                      A
 Frequencies --   3695.8156              3876.8646              3947.5011
 Red. masses --      1.0739                 1.0452                 1.0676
 Frc consts  --      8.6425                 9.2555                 9.8014
 IR Inten    --    350.4559                22.3145                90.5376

                    118                    119                    120
                      A                      A                      A
 Frequencies --   3949.5321              3956.9849              3984.0055
 Red. masses --      1.0671                 1.0700                 1.0828
 Frc consts  --      9.8068                 9.8708                10.1265
 IR Inten    --    108.2128               101.4367               103.6849

 - Thermochemistry -
 -------------------
 Temperature   298.150 Kelvin.  Pressure   1.00000 Atm.
 Atom     1 has atomic number  6 and mass  12.00000

 Molecular mass:   253.17635 amu.
 Principal axes and moments of inertia in atomic units:
                           1         2         3
     Eigenvalues --  4629.714368122.27281**********
           X            0.99994  -0.01006  -0.00300
           Y            0.01005   0.99993  -0.00546
           Z            0.00306   0.00543   0.99998
 This molecule is an asymmetric top.
 Rotational symmetry number  1.
 Warning -- assumption of classical behavior for rotation
           may cause significant error
 Rotational temperatures (Kelvin)      0.01871     0.01066     0.00857
 Rotational constants (GHZ):           0.38982     0.22220     0.17866
 Zero-point vibrational energy     964493.1 (Joules/Mol)
                                  230.51937 (Kcal/Mol)
 Warning -- explicit consideration of  37 degrees of freedom as
           vibrations may cause significant error
 Vibrational temperatures:     10.89    14.49    32.99    43.62    51.80
          (Kelvin)             84.05    88.65    93.03   106.44   124.69
                              135.56   138.00   169.28   223.53   236.39
                              257.21   282.12   289.44   291.20   321.67
                              339.53   347.02   353.10   371.63   385.15
                              397.06   431.85   446.52   520.91   570.36
                              589.81   601.78   604.17   753.01   769.48
                              796.98   841.60   909.54   921.56   934.30
                              969.29  1009.69  1028.34  1043.66  1125.27
                             1194.40  1204.32  1208.08  1244.85  1344.85
                             1352.83  1372.96  1408.82  1412.46  1440.13
                             1457.41  1488.47  1503.48  1515.94  1547.22
                             1573.95  1608.89  1645.50  1654.11  1724.77
                             1747.75  1764.13  1789.36  1800.78  1811.92
                             1818.64  1859.33  1867.64  1911.05  1915.73
                             1951.63  1983.89  1987.65  2019.48  2075.15
                             2092.17  2132.33  2135.25  2141.88  2165.86
                             2183.99  2196.20  2317.00  2340.65  2354.21
                             2381.88  2391.19  2431.02  2458.89  2479.72
                             3989.82  4260.02  4305.25  4309.48  4443.13
                             4464.34  4475.69  4483.67  4521.74  4536.97
                             4549.15  4623.31  4644.93  4667.04  4688.17
                             4695.17  4797.23  5116.74  5282.59  5317.45
                             5577.94  5679.57  5682.50  5693.22  5732.10

 Zero-point correction=                           0.367356 (Hartree/Particle)
 Thermal correction to Energy=                    0.392866
 Thermal correction to Enthalpy=                  0.393810
 Thermal correction to Gibbs Free Energy=         0.306791
 Sum of electronic and zero-point Energies=           -881.098990
 Sum of electronic and thermal Energies=              -881.073480
 Sum of electronic and thermal Enthalpies=            -881.072536
 Sum of electronic and thermal Free Energies=         -881.159555

                     E (Thermal)             CV                S
                      KCal/Mol        Cal/Mol-Kelvin    Cal/Mol-Kelvin
 Total                  246.527             87.914            183.148
 Electronic               0.000              0.000              0.000
 Translational            0.889              2.981             42.487
 Rotational               0.889              2.981             34.295
 Vibrational            244.750             81.952            106.366
 Vibration     1          0.593              1.987              8.564
 Vibration     2          0.593              1.987              7.996
 Vibration     3          0.593              1.985              6.363
 Vibration     4          0.594              1.984              5.808
 Vibration     5          0.594              1.982              5.468
 Vibration     6          0.596              1.974              4.510
 Vibration     7          0.597              1.973              4.405
 Vibration     8          0.597              1.971              4.310
 Vibration     9          0.599              1.966              4.045
 Vibration    10          0.601              1.958              3.734
 Vibration    11          0.603              1.953              3.570
 Vibration    12          0.603              1.952              3.536
 Vibration    13          0.608              1.935              3.139
 Vibration    14          0.620              1.897              2.606
 Vibration    15          0.623              1.886              2.500
 Vibration    16          0.629              1.868              2.341
 Vibration    17          0.636              1.845              2.170
 Vibration    18          0.638              1.838              2.122
 Vibration    19          0.639              1.836              2.111
 Vibration    20          0.649              1.805              1.930
 Vibration    21          0.655              1.786              1.833
 Vibration    22          0.658              1.777              1.794
 Vibration    23          0.660              1.770              1.763
 Vibration    24          0.667              1.749              1.673
 Vibration    25          0.673              1.732              1.611
 Vibration    26          0.678              1.718              1.559
 Vibration    27          0.693              1.673              1.416
 Vibration    28          0.699              1.654              1.360
 Vibration    29          0.736              1.550              1.113
 Vibration    30          0.763              1.478              0.976
 Vibration    31          0.774              1.449              0.927
 Vibration    32          0.781              1.431              0.898
 Vibration    33          0.783              1.427              0.892
 Vibration    34          0.878              1.198              0.602
 Vibration    35          0.890              1.173              0.577
 Vibration    36          0.909              1.131              0.536
 Vibration    37          0.942              1.064              0.476

                           ! Non-Optimized Parameters !
 Normal termination of Gaussian 16 at Tue Dec  6 16:55:55 2022.
