 Gaussian 16, Revision A.03,
 Gaussian 16:  ES64L-G16RevA.03 25-Dec-2016

 -----------------------------
 # wB97XD/aug-cc-pVDZ Opt Freq
 -----------------------------

 -------------------------------
 p-Py Nornicotine, W anti , 5H2O
 -------------------------------
 Symbolic Z-matrix:
 Charge =  1 Multiplicity = 1

 SCF Done:  E(RwB97XD) =  -881.473455511     A.U. after   15 cycles
 SCF Done:  E(RwB97XD) =  -881.474034350     A.U. after   13 cycles
 SCF Done:  E(RwB97XD) =  -881.471611668     A.U. after   15 cycles
 SCF Done:  E(RwB97XD) =  -881.473981851     A.U. after   13 cycles
 SCF Done:  E(RwB97XD) =  -881.474175583     A.U. after    9 cycles
 SCF Done:  E(RwB97XD) =  -881.474256882     A.U. after   11 cycles
 SCF Done:  E(RwB97XD) =  -881.474277641     A.U. after   11 cycles
 SCF Done:  E(RwB97XD) =  -881.474291368     A.U. after   10 cycles
 SCF Done:  E(RwB97XD) =  -881.474296603     A.U. after   10 cycles
 SCF Done:  E(RwB97XD) =  -881.474300893     A.U. after   10 cycles
 SCF Done:  E(RwB97XD) =  -881.474311178     A.U. after    8 cycles
 SCF Done:  E(RwB97XD) =  -881.474311559     A.U. after    9 cycles
 SCF Done:  E(RwB97XD) =  -881.474311890     A.U. after    9 cycles
 SCF Done:  E(RwB97XD) =  -881.474312244     A.U. after    9 cycles
 SCF Done:  E(RwB97XD) =  -881.474312419     A.U. after    9 cycles
 SCF Done:  E(RwB97XD) =  -881.474312675     A.U. after    9 cycles
 SCF Done:  E(RwB97XD) =  -881.474312812     A.U. after    8 cycles
 SCF Done:  E(RwB97XD) =  -881.474312974     A.U. after    8 cycles
 SCF Done:  E(RwB97XD) =  -881.474313066     A.U. after    8 cycles
 Optimization completed.
    -- Stationary point found.
 Normal termination of Gaussian 16 at Sat Sep  5 04:50:39 2020.

 ----------------------------------------------------------------------
 #N Geom=AllCheck Guess=TCheck SCRF=Check GenChk RwB97XD/Aug-CC-pVDZ Fr
 eq
 ----------------------------------------------------------------------

 Structure from the checkpoint file:  "NicPyWa5h25.chk"
 -------------------------------
 p-Py Nornicotine, W anti , 5H2O
 -------------------------------
 Charge =  1 Multiplicity = 1

                         Standard orientation:
 ---------------------------------------------------------------------
 Center     Atomic      Atomic             Coordinates (Angstroms)
 Number     Number       Type             X           Y           Z
 ---------------------------------------------------------------------
      1          6           0        1.968342   -0.267964   -1.685521
      2          6           0        1.867741    0.748402   -0.532569
      3          7           0        2.169776   -0.055694    0.665029
      4          6           0        3.327359   -0.863050    0.244817
      5          6           0        2.952645   -1.340969   -1.162095
      6          6           0        0.549941    1.477255   -0.435719
      7          6           0        0.463093    2.866693   -0.546227
      8          6           0       -0.769210    3.515137   -0.461271
      9          6           0       -1.906430    2.756310   -0.250912
     10          7           0       -1.805611    1.424674   -0.144798
     11          6           0       -0.636710    0.782944   -0.236563
     12          8           0       -3.664846   -0.246600    0.449919
     13          8           0       -3.202535   -2.010084   -1.521534
     14          8           0       -0.537982   -2.698803   -1.146182
     15          8           0        0.411850   -2.031619    1.371090
     16          1           0        3.502619   -1.676989    0.959158
     17          1           0        3.838344   -1.444329   -1.796439
     18          1           0        2.459746   -2.318736   -1.119332
     19          1           0        2.315089    0.220872   -2.601722
     20          1           0        0.988762   -0.712866   -1.894175
     21          1           0        4.236744   -0.236192    0.220576
     22          1           0        2.660554    1.511298   -0.652970
     23          1           0       -0.687469   -0.299748   -0.150479
     24          1           0       -2.904821    3.177484   -0.160471
     25          1           0       -0.846700    4.596123   -0.549332
     26          1           0        1.370253    3.451728   -0.700313
     27          6           0        2.430163    0.748471    1.855464
     28          1           0       -2.673815    0.796176    0.059357
     29          1           0       -0.195866   -2.675056   -0.233497
     30          1           0       -0.182852   -3.494237   -1.549784
     31          1           0       -3.662176   -0.955168   -0.229972
     32          1           0       -3.251618   -0.632213    1.244686
     33          1           0       -3.762538   -2.701052   -1.881261
     34          1           0       -2.305595   -2.382645   -1.439159
     35          1           0        1.046548   -1.292432    1.129465
     36          1           0        0.901585   -2.650346    1.919283
     37          8           0       -1.901746   -0.863080    2.464298
     38          1           0       -1.106738   -1.363719    2.210801
     39          1           0       -2.093628   -1.095817    3.375554
     40          1           0        2.702483    0.090474    2.689004
     41          1           0        1.527259    1.302380    2.139719
     42          1           0        3.255154    1.464276    1.692535
 ---------------------------------------------------------------------

 SCF Done:  E(RwB97XD) =  -881.474313066     A.U. after    1 cycles

 The electronic state is 1-A.
 Alpha  occ. eigenvalues --  -19.40755 -19.39385 -19.38522 -19.37353 -19.37072
 Alpha  occ. eigenvalues --  -14.66017 -14.59063 -10.50251 -10.50121 -10.47367
 Alpha  occ. eigenvalues --  -10.46910 -10.46689 -10.46314 -10.44206 -10.43891
 Alpha  occ. eigenvalues --  -10.41468 -10.41105  -1.25234  -1.24842  -1.23578
 Alpha  occ. eigenvalues --   -1.22899  -1.21969  -1.20767  -1.18157  -1.07795
 Alpha  occ. eigenvalues --   -1.04171  -1.01000  -0.96081  -0.90121  -0.89797
 Alpha  occ. eigenvalues --   -0.88652  -0.82025  -0.80322  -0.79677  -0.75818
 Alpha  occ. eigenvalues --   -0.74787  -0.74353  -0.74037  -0.73301  -0.72858
 Alpha  occ. eigenvalues --   -0.72630  -0.71243  -0.70051  -0.68473  -0.67393
 Alpha  occ. eigenvalues --   -0.65935  -0.65070  -0.63965  -0.62866  -0.62544
 Alpha  occ. eigenvalues --   -0.61905  -0.61177  -0.59341  -0.59169  -0.58397
 Alpha  occ. eigenvalues --   -0.57797  -0.56823  -0.56510  -0.55874  -0.54484
 Alpha  occ. eigenvalues --   -0.54214  -0.52952  -0.52597  -0.52179  -0.51777
 Alpha  occ. eigenvalues --   -0.50846  -0.50622  -0.49021  -0.45622
 Alpha virt. eigenvalues --   -0.13154  -0.10585  -0.06885  -0.05579  -0.04857
 Alpha virt. eigenvalues --   -0.04651  -0.03546  -0.03109  -0.02980  -0.02594
 Alpha virt. eigenvalues --   -0.02555  -0.01508  -0.01150  -0.00708  -0.00484

 Mulliken charges:
               1
     1  C    1.304105
     2  C    1.073289
     3  N   -1.192662
     4  C    1.388520
     5  C    0.879294
     6  C    0.909054
     7  C    1.164547
     8  C    0.454115
     9  C    0.745741
    10  N    0.223671
    11  C    0.269213
    12  O   -0.594172
    13  O   -0.322987
    14  O   -0.476193
    15  O   -0.892278
    16  H   -0.613990
    17  H   -0.294136
    18  H   -0.367277
    19  H   -0.526486
    20  H   -0.367716
    21  H   -0.551275
    22  H   -0.850907
    23  H   -1.087748
    24  H   -0.685993
    25  H   -0.587328
    26  H   -0.917134
    27  C    1.042294
    28  H    0.148853
    29  H    0.265350
    30  H    0.188504
    31  H    0.246576
    32  H    0.245270
    33  H    0.170750
    34  H    0.199657
    35  H    0.601114
    36  H    0.295427
    37  O   -0.371188
    38  H    0.252207
    39  H    0.180860
    40  H   -0.218488
    41  H   -0.134243
    42  H   -0.196211
 Sum of Mulliken charges =   1.00000

 Dipole moment (field-independent basis, Debye):
    X=              2.4109    Y=              0.3693    Z=              0.9392  Tot=              2.6136
 Quadrupole moment (field-independent basis, Debye-Ang):
   XX=            -80.2404   YY=            -56.6939   ZZ=            -88.4372
   XY=             -1.7948   XZ=              1.9731   YZ=             -3.4120

  Exact polarizability: 189.244  -9.341 182.983  -2.330  -1.161 141.168
 Approx polarizability: 197.800  -3.821 198.450  -4.059  -3.247 156.654

                      1                      2                      3
                      A                      A                      A
 Frequencies --     18.3692                27.0023                42.4588
 Red. masses --      4.5561                 4.7155                 5.1555
 Frc consts  --      0.0009                 0.0020                 0.0055
 IR Inten    --      0.6849                 2.9238                 0.3549

                      4                      5                      6
                      A                      A                      A
 Frequencies --     56.1314                66.8386                73.1951
 Red. masses --      4.8612                 4.6852                 5.1989
 Frc consts  --      0.0090                 0.0123                 0.0164
 IR Inten    --      0.0099                 0.8144                 1.8401

                      7                      8                      9
                      A                      A                      A
 Frequencies --     79.2205                85.9083                89.6425
 Red. masses --      3.9305                 5.4392                 4.5209
 Frc consts  --      0.0145                 0.0237                 0.0214
 IR Inten    --      0.2623                 0.6221                 0.1603

                     10                     11                     12
                      A                      A                      A
 Frequencies --    106.3341               125.5498               160.2631
 Red. masses --      2.8663                 3.7713                 4.2449
 Frc consts  --      0.0191                 0.0350                 0.0642
 IR Inten    --      0.5952                 2.1071                 9.0942

                     13                     14                     15
                      A                      A                      A
 Frequencies --    172.5430               194.2797               209.3959
 Red. masses --      1.9913                 5.0531                 4.7269
 Frc consts  --      0.0349                 0.1124                 0.1221
 IR Inten    --      0.4491                 6.2824                13.3140

                     16                     17                     18
                      A                      A                      A
 Frequencies --    214.2522               221.7292               235.5549
 Red. masses --      2.9813                 1.1953                 1.2065
 Frc consts  --      0.0806                 0.0346                 0.0394
 IR Inten    --      6.1473                93.6408                42.5373

                     19                     20                     21
                      A                      A                      A
 Frequencies --    248.4633               253.3781               255.9995
 Red. masses --      2.1183                 1.8230                 3.9636
 Frc consts  --      0.0770                 0.0690                 0.1530
 IR Inten    --      8.6459                50.9934                34.6177

                     22                     23                     24
                      A                      A                      A
 Frequencies --    259.9783               264.3931               280.3666
 Red. masses --      1.3065                 2.4263                 3.8860
 Frc consts  --      0.0520                 0.0999                 0.1800
 IR Inten    --     78.2352                19.3035                13.9619

                     25                     26                     27
                      A                      A                      A
 Frequencies --    319.5342               322.0746               362.1940
 Red. masses --      4.3314                 5.5309                 1.0711
 Frc consts  --      0.2606                 0.3380                 0.0828
 IR Inten    --      1.7206                23.8695                 1.2982

                     28                     29                     30
                      A                      A                      A
 Frequencies --    402.1927               412.9899               421.0096
 Red. masses --      2.7218                 2.2522                 3.0439
 Frc consts  --      0.2594                 0.2263                 0.3179
 IR Inten    --      1.0940                15.5412                16.2688

                     31                     32                     33
                      A                      A                      A
 Frequencies --    432.5419               485.4994               523.0385
 Red. masses --      1.2263                 1.1057                 1.0768
 Frc consts  --      0.1352                 0.1536                 0.1736
 IR Inten    --     17.8836               116.1839               117.7456

                     34                     35                     36
                      A                      A                      A
 Frequencies --    546.4572               575.6999               579.2761
 Red. masses --      2.6393                 1.2701                 1.9976
 Frc consts  --      0.4643                 0.2480                 0.3949
 IR Inten    --      7.0035                10.5438                 2.8135

                     37                     38                     39
                      A                      A                      A
 Frequencies --    600.4503               633.7108               637.7627
 Red. masses --      1.1899                 3.6856                 1.4361
 Frc consts  --      0.2528                 0.8721                 0.3442
 IR Inten    --     35.0570                49.6751                 5.5855

                     40                     41                     42
                      A                      A                      A
 Frequencies --    652.5134               672.6702               694.0408
 Red. masses --      1.9711                 4.8467                 1.1381
 Frc consts  --      0.4945                 1.2921                 0.3230
 IR Inten    --     21.7808                10.5334               118.2086

                     43                     44                     45
                      A                      A                      A
 Frequencies --    718.7857               746.8329               770.4231
 Red. masses --      1.8666                 1.0788                 1.1662
 Frc consts  --      0.5682                 0.3545                 0.4078
 IR Inten    --     60.8140               236.6072               122.1950

                     46                     47                     48
                      A                      A                      A
 Frequencies --    786.0265               841.9313               843.3868
 Red. masses --      1.4253                 1.5112                 2.2166
 Frc consts  --      0.5188                 0.6311                 0.9290
 IR Inten    --     17.6552                38.8511                 2.0800

                     49                     50                     51
                      A                      A                      A
 Frequencies --    892.3291               933.7090               934.3071
 Red. masses --      1.0804                 2.0273                 2.4653
 Frc consts  --      0.5069                 1.0413                 1.2680
 IR Inten    --    174.4536                19.5133                19.5522

                     52                     53                     54
                      A                      A                      A
 Frequencies --    954.1669               977.3376               988.3234
 Red. masses --      2.3627                 1.5169                 1.3701
 Frc consts  --      1.2674                 0.8537                 0.7885
 IR Inten    --     19.9526                 4.8207                 3.2936

                     55                     56                     57
                      A                      A                      A
 Frequencies --   1008.6725              1025.6461              1032.9583
 Red. masses --      1.9183                 1.0888                 1.3965
 Frc consts  --      1.1499                 0.6748                 0.8779
 IR Inten    --      4.7669                23.0501                 1.3026

                     58                     59                     60
                      A                      A                      A
 Frequencies --   1039.7301              1058.3726              1073.1888
 Red. masses --      3.5579                 2.3648                 1.8343
 Frc consts  --      2.2661                 1.5607                 1.2447
 IR Inten    --     19.9233                 1.5177                16.7472

                     61                     62                     63
                      A                      A                      A
 Frequencies --   1092.2926              1119.5783              1146.4307
 Red. masses --      2.2323                 2.2926                 1.2785
 Frc consts  --      1.5692                 1.6931                 0.9900
 IR Inten    --     10.6778                10.6237                 6.7486

                     64                     65                     66
                      A                      A                      A
 Frequencies --   1152.3707              1194.3762              1215.7606
 Red. masses --      1.5056                 1.9389                 1.3065
 Frc consts  --      1.1780                 1.6296                 1.1377
 IR Inten    --      8.4090                15.5279                 6.1329

                     67                     68                     69
                      A                      A                      A
 Frequencies --   1230.9300              1242.3578              1258.0788
 Red. masses --      1.5045                 1.7498                 1.7611
 Frc consts  --      1.3431                 1.5913                 1.6423
 IR Inten    --      7.9258                12.7486                 9.7409

                     70                     71                     72
                      A                      A                      A
 Frequencies --   1264.0826              1295.1369              1302.1402
 Red. masses --      1.6918                 1.6060                 1.3401
 Frc consts  --      1.5928                 1.5872                 1.3388
 IR Inten    --     11.8698                 8.1396                 7.5530

                     73                     74                     75
                      A                      A                      A
 Frequencies --   1326.3770              1329.2292              1367.0020
 Red. masses --      1.8759                 1.4428                 1.3017
 Frc consts  --      1.9445                 1.5020                 1.4332
 IR Inten    --     25.9410                 0.3085                 3.7305

                     76                     77                     78
                      A                      A                      A
 Frequencies --   1369.9369              1373.7075              1381.5559
 Red. masses --      1.2733                 1.5024                 1.5221
 Frc consts  --      1.4079                 1.6704                 1.7117
 IR Inten    --     33.8752                22.2604                 4.3439

                     79                     80                     81
                      A                      A                      A
 Frequencies --   1409.8489              1448.1201              1455.3585
 Red. masses --      1.8223                 1.3999                 1.3934
 Frc consts  --      2.1341                 1.7297                 1.7389
 IR Inten    --      3.3869                 8.5612                19.1646

                     82                     83                     84
                      A                      A                      A
 Frequencies --   1484.3293              1487.8515              1492.0238
 Red. masses --      1.0477                 1.0616                 1.0823
 Frc consts  --      1.3600                 1.3846                 1.4195
 IR Inten    --     14.8343                11.0102                 4.7234

                     85                     86                     87
                      A                      A                      A
 Frequencies --   1507.8869              1518.4819              1527.4158
 Red. masses --      1.0923                 1.6409                 1.3278
 Frc consts  --      1.4633                 2.2293                 1.8252
 IR Inten    --      8.9708                49.2362                15.1966

                     88                     89                     90
                      A                      A                      A
 Frequencies --   1629.1152              1638.5677              1649.9017
 Red. masses --      1.8754                 1.1702                 1.0764
 Frc consts  --      2.9326                 1.8512                 1.7264
 IR Inten    --    147.7659                81.8393                18.8168

                     91                     92                     93
                      A                      A                      A
 Frequencies --   1669.0430              1681.7965              1694.6956
 Red. masses --      1.0747                 1.1386                 1.1203
 Frc consts  --      1.7640                 1.8975                 1.8957
 IR Inten    --     45.5033                 2.4365                10.7197

                     94                     95                     96
                      A                      A                      A
 Frequencies --   1709.4641              1723.9658              2364.4150
 Red. masses --      3.7749                 2.2539                 1.1401
 Frc consts  --      6.4994                 3.9468                 3.7551
 IR Inten    --      4.5123                87.2158              2709.5879

                     97                     98                     99
                      A                      A                      A
 Frequencies --   2975.7004              2994.7972              3005.8618
 Red. masses --      1.0825                 1.0611                 1.0617
 Frc consts  --      5.6473                 5.6069                 5.6520
 IR Inten    --    378.3806               507.2075                28.4314

                    100                    101                    102
                      A                      A                      A
 Frequencies --   3038.2455              3094.6728              3101.5307
 Red. masses --      1.0695                 1.0632                 1.0675
 Frc consts  --      5.8170                 5.9994                 6.0504
 IR Inten    --    765.4984                14.8493                15.1305

                    103                    104                    105
                      A                      A                      A
 Frequencies --   3110.6597              3116.9882              3149.2242
 Red. masses --      1.0885                 1.0906                 1.1054
 Frc consts  --      6.2057                 6.2428                 6.4593
 IR Inten    --     16.1321                41.2576                 1.4909

                    106                    107                    108
                      A                      A                      A
 Frequencies --   3150.7499              3165.4308              3211.7218
 Red. masses --      1.1043                 1.1052                 1.0925
 Frc consts  --      6.4591                 6.5244                 6.6397
 IR Inten    --     13.5408                17.2966                 0.6257

                    109                    110                    111
                      A                      A                      A
 Frequencies --   3245.5606              3256.1466              3260.1263
 Red. masses --      1.0927                 1.0937                 1.1007
 Frc consts  --      6.7817                 6.8321                 6.8927
 IR Inten    --      1.6200                10.3182                 2.2049

                    112                    113                    114
                      A                      A                      A
 Frequencies --   3508.6386              3606.4544              3648.0038
 Red. masses --      1.0612                 1.0590                 1.0670
 Frc consts  --      7.6973                 8.1151                 8.3665
 IR Inten    --    553.5365               247.2967              1044.0858

                    115                    116                    117
                      A                      A                      A
 Frequencies --   3658.5083              3683.9236              3922.7454
 Red. masses --      1.0588                 1.0626                 1.0660
 Frc consts  --      8.3498                 8.4969                 9.6646
 IR Inten    --    400.9848               184.0752                79.6718

                    118                    119                    120
                      A                      A                      A
 Frequencies --   3941.9797              3947.0664              3953.6124
 Red. masses --      1.0698                 1.0709                 1.0703
 Frc consts  --      9.7948                 9.8297                 9.8570
 IR Inten    --    136.7154                98.3739               145.5941

 - Thermochemistry -
 -------------------
 Temperature   298.150 Kelvin.  Pressure   1.00000 Atm.
 Atom     1 has atomic number  6 and mass  12.00000

 Molecular mass:   253.17635 amu.
 Principal axes and moments of inertia in atomic units:
                           1         2         3
     Eigenvalues --  4197.052195475.043507075.06568
           X            0.99992   0.01277   0.00246
           Y           -0.01279   0.99988   0.00910
           Z           -0.00235  -0.00913   0.99996
 This molecule is an asymmetric top.
 Rotational symmetry number  1.
 Warning -- assumption of classical behavior for rotation
           may cause significant error
 Rotational temperatures (Kelvin)      0.02064     0.01582     0.01224
 Rotational constants (GHZ):           0.43000     0.32963     0.25508
 Zero-point vibrational energy     969830.5 (Joules/Mol)
                                  231.79506 (Kcal/Mol)
 Warning -- explicit consideration of  37 degrees of freedom as
           vibrations may cause significant error
 Vibrational temperatures:     26.43    38.85    61.09    80.76    96.17
          (Kelvin)            105.31   113.98   123.60   128.98   152.99
                              180.64   230.58   248.25   279.53   301.27
                              308.26   319.02   338.91   357.48   364.55
                              368.33   374.05   380.40   403.38   459.74
                              463.39   521.12   578.67   594.20   605.74
                              622.33   698.53   752.54   786.23   828.30
                              833.45   863.91   911.77   917.60   938.82
                              967.82   998.57  1034.17  1074.53  1108.47
                             1130.92  1211.35  1213.45  1283.86  1343.40
                             1344.26  1372.83  1406.17  1421.98  1451.25
                             1475.68  1486.20  1495.94  1522.76  1544.08
                             1571.57  1610.82  1649.46  1658.00  1718.44
                             1749.21  1771.03  1787.48  1810.09  1818.73
                             1863.41  1873.49  1908.36  1912.46  1966.81
                             1971.03  1976.46  1987.75  2028.46  2083.52
                             2093.94  2135.62  2140.69  2146.69  2169.51
                             2184.76  2197.61  2343.93  2357.53  2373.84
                             2401.38  2419.73  2438.29  2459.54  2480.40
                             3401.87  4281.37  4308.85  4324.76  4371.36
                             4452.54  4462.41  4475.55  4484.65  4531.03
                             4533.23  4554.35  4620.95  4669.64  4684.87
                             4690.59  5048.15  5188.88  5248.66  5263.78
                             5300.34  5643.96  5671.63  5678.95  5688.37

 Zero-point correction=                           0.369389 (Hartree/Particle)
 Thermal correction to Energy=                    0.393117
 Thermal correction to Enthalpy=                  0.394061
 Thermal correction to Gibbs Free Energy=         0.315586
 Sum of electronic and zero-point Energies=           -881.104924
 Sum of electronic and thermal Energies=              -881.081196
 Sum of electronic and thermal Enthalpies=            -881.080252
 Sum of electronic and thermal Free Energies=         -881.158727

                     E (Thermal)             CV                S
                      KCal/Mol        Cal/Mol-Kelvin    Cal/Mol-Kelvin
 Total                  246.684             85.785            165.165
 Electronic               0.000              0.000              0.000
 Translational            0.889              2.981             42.487
 Rotational               0.889              2.981             33.452
 Vibrational            244.907             79.823             89.226
 Vibration     1          0.593              1.986              6.803
 Vibration     2          0.593              1.984              6.038
 Vibration     3          0.595              1.980              5.141
 Vibration     4          0.596              1.975              4.589
 Vibration     5          0.598              1.970              4.244
 Vibration     6          0.599              1.967              4.066
 Vibration     7          0.600              1.963              3.910
 Vibration     8          0.601              1.959              3.751
 Vibration     9          0.602              1.957              3.668
 Vibration    10          0.605              1.944              3.335
 Vibration    11          0.610              1.928              3.013
 Vibration    12          0.622              1.891              2.547
 Vibration    13          0.626              1.876              2.408
 Vibration    14          0.635              1.848              2.187
 Vibration    15          0.642              1.826              2.049
 Vibration    16          0.644              1.819              2.007
 Vibration    17          0.648              1.808              1.945
 Vibration    18          0.655              1.786              1.836
 Vibration    19          0.662              1.765              1.741
 Vibration    20          0.665              1.757              1.707
 Vibration    21          0.666              1.753              1.689
 Vibration    22          0.668              1.746              1.662
 Vibration    23          0.671              1.738              1.633
 Vibration    24          0.680              1.710              1.531
 Vibration    25          0.705              1.636              1.312
 Vibration    26          0.707              1.631              1.300
 Vibration    27          0.736              1.550              1.113
 Vibration    28          0.768              1.465              0.955
 Vibration    29          0.777              1.442              0.916
 Vibration    30          0.784              1.425              0.889
 Vibration    31          0.793              1.399              0.850
 Vibration    32          0.842              1.282              0.695
 Vibration    33          0.878              1.199              0.603
 Vibration    34          0.902              1.147              0.552
 Vibration    35          0.932              1.084              0.493
 Vibration    36          0.936              1.076              0.487
 Vibration    37          0.959              1.031              0.449

                           ! Non-Optimized Parameters !
 Normal termination of Gaussian 16 at Sat Sep  5 06:28:53 2020.
