 Gaussian 16, Revision A.03,
 Gaussian 16:  ES64L-G16RevA.03 25-Dec-2016

 ---------------------------------------------
 # wB97XD/aug-cc-pVDZ opt freq temperature=130
 ---------------------------------------------

 --------
 Nicotine
 --------
 Symbolic Z-matrix:
 Charge =  1 Multiplicity = 1

 SCF Done:  E(RwB97XD) =  -881.469360000     A.U. after   16 cycles
 SCF Done:  E(RwB97XD) =  -881.470254402     A.U. after   12 cycles
 SCF Done:  E(RwB97XD) =  -881.470336764     A.U. after   12 cycles
 SCF Done:  E(RwB97XD) =  -881.470329668     A.U. after   11 cycles
 SCF Done:  E(RwB97XD) =  -881.470289081     A.U. after   12 cycles
 SCF Done:  E(RwB97XD) =  -881.470355355     A.U. after   12 cycles
 SCF Done:  E(RwB97XD) =  -881.470356658     A.U. after   10 cycles
 SCF Done:  E(RwB97XD) =  -881.470371199     A.U. after   11 cycles
 SCF Done:  E(RwB97XD) =  -881.470379246     A.U. after   10 cycles
 SCF Done:  E(RwB97XD) =  -881.470383727     A.U. after   10 cycles
 SCF Done:  E(RwB97XD) =  -881.470396777     A.U. after    8 cycles
 SCF Done:  E(RwB97XD) =  -881.470396752     A.U. after    8 cycles
 SCF Done:  E(RwB97XD) =  -881.470396725     A.U. after    8 cycles
 SCF Done:  E(RwB97XD) =  -881.470396701     A.U. after    8 cycles
 SCF Done:  E(RwB97XD) =  -881.470396669     A.U. after    8 cycles
 SCF Done:  E(RwB97XD) =  -881.470396623     A.U. after    8 cycles
 SCF Done:  E(RwB97XD) =  -881.470396406     A.U. after   10 cycles
 SCF Done:  E(RwB97XD) =  -881.470396465     A.U. after    9 cycles
 SCF Done:  E(RwB97XD) =  -881.470396411     A.U. after    9 cycles
 Optimization completed.
    -- Stationary point found.
 Normal termination of Gaussian 16 at Thu Jul 15 15:36:25 2021.

 ----------------------------------------------------------------------
 #N Geom=AllCheck Guess=TCheck SCRF=Check GenChk RwB97XD/Aug-CC-pVDZ Fr
 eq
 ----------------------------------------------------------------------

 Structure from the checkpoint file:  "NicPyWa5h10.chk"
 --------
 Nicotine
 --------
 Charge =  1 Multiplicity = 1

                         Standard orientation:
 ---------------------------------------------------------------------
 Center     Atomic      Atomic             Coordinates (Angstroms)
 Number     Number       Type             X           Y           Z
 ---------------------------------------------------------------------
      1          6           0       -2.865069   -0.129753    1.016582
      2          6           0       -2.229631    0.191496   -0.349312
      3          7           0       -1.675724   -1.102884   -0.778343
      4          6           0       -2.756251   -2.053182   -0.472283
      5          6           0       -3.240568   -1.628307    0.919088
      6          6           0       -1.195447    1.289573   -0.323535
      7          6           0       -1.351753    2.489294   -1.019290
      8          6           0       -0.370650    3.481144   -0.960086
      9          6           0        0.769403    3.249712   -0.212244
     10          7           0        0.900716    2.090664    0.447841
     11          6           0       -0.031060    1.133697    0.415431
     12          8           0        2.899512    0.977555    1.685960
     13          8           0        2.637967   -0.634316   -0.470920
     14          8           0        0.485520   -2.195490    0.569366
     15          8           0        1.042992   -0.771437    2.897206
     16          1           0       -2.380380   -3.082914   -0.515484
     17          1           0       -4.315712   -1.796804    1.034583
     18          1           0       -2.730661   -2.202740    1.700165
     19          1           0       -3.726691    0.518030    1.208225
     20          1           0       -2.140343    0.040767    1.821909
     21          1           0       -3.566193   -1.959966   -1.218402
     22          1           0       -3.024820    0.494631   -1.057664
     23          1           0        0.190737    0.251964    1.009712
     24          1           0        1.588139    3.959408   -0.123738
     25          1           0       -0.484363    4.420039   -1.496575
     26          1           0       -2.248778    2.653829   -1.616999
     27          6           0       -1.262420   -1.127162   -2.177835
     28          1           0        1.784781    1.823578    0.999366
     29          1           0       -0.309882   -1.805698    0.112246
     30          1           0        0.437693   -3.147215    0.451218
     31          1           0        3.053386    0.349105    0.946732
     32          1           0        2.463586    0.424003    2.356577
     33          1           0        3.343273   -1.077439   -0.973877
     34          1           0        2.011746   -1.327257   -0.210007
     35          1           0        0.883360   -1.484582    2.254677
     36          1           0        0.998365   -1.168706    3.769905
     37          8           0        4.665398   -1.970486   -1.849749
     38          1           0        4.888841   -1.824800   -2.772791
     39          1           0        5.496518   -2.174197   -1.412249
     40          1           0       -0.916019   -2.134245   -2.437912
     41          1           0       -0.429434   -0.431221   -2.335138
     42          1           0       -2.092527   -0.857708   -2.854981
 ---------------------------------------------------------------------

 SCF Done:  E(RwB97XD) =  -881.470396411     A.U. after    1 cycles

 The electronic state is 1-A.
 Alpha  occ. eigenvalues --  -19.39748 -19.39263 -19.38432 -19.36803 -19.36091
 Alpha  occ. eigenvalues --  -14.66181 -14.58486 -10.50218 -10.49688 -10.47229
 Alpha  occ. eigenvalues --  -10.46635 -10.46389 -10.46196 -10.43743 -10.43363
 Alpha  occ. eigenvalues --  -10.41487 -10.40733  -1.24900  -1.24101  -1.23578
 Alpha  occ. eigenvalues --   -1.22569  -1.21446  -1.19855  -1.17719  -1.07647
 Alpha  occ. eigenvalues --   -1.04030  -1.00658  -0.95790  -0.89795  -0.89624
 Alpha  occ. eigenvalues --   -0.88498  -0.81881  -0.79908  -0.79351  -0.75041
 Alpha  occ. eigenvalues --   -0.74253  -0.74206  -0.73925  -0.72600  -0.72159
 Alpha  occ. eigenvalues --   -0.71445  -0.70836  -0.69657  -0.68211  -0.67185
 Alpha  occ. eigenvalues --   -0.65655  -0.64580  -0.63717  -0.62880  -0.61616
 Alpha  occ. eigenvalues --   -0.61272  -0.60552  -0.59299  -0.58852  -0.57952
 Alpha  occ. eigenvalues --   -0.57362  -0.56518  -0.55967  -0.55550  -0.54122
 Alpha  occ. eigenvalues --   -0.53227  -0.52716  -0.52202  -0.52081  -0.51545
 Alpha  occ. eigenvalues --   -0.50446  -0.49780  -0.48747  -0.44982
 Alpha virt. eigenvalues --   -0.13033  -0.10340  -0.06294  -0.05377  -0.04810
 Alpha virt. eigenvalues --   -0.04448  -0.03721  -0.02960  -0.02792  -0.02467
 Alpha virt. eigenvalues --   -0.02241  -0.01468  -0.00935  -0.00771  -0.00423

 Mulliken charges:
               1
     1  C    1.137305
     2  C    1.207526
     3  N   -1.078620
     4  C    1.335923
     5  C    0.877716
     6  C    0.681917
     7  C    1.155863
     8  C    0.503455
     9  C    0.672433
    10  N    0.115021
    11  C    0.575379
    12  O   -0.624783
    13  O   -0.377321
    14  O   -0.878349
    15  O   -0.341150
    16  H   -0.594376
    17  H   -0.283037
    18  H   -0.318479
    19  H   -0.552478
    20  H   -0.273012
    21  H   -0.548128
    22  H   -0.844916
    23  H   -1.323483
    24  H   -0.673299
    25  H   -0.589632
    26  H   -0.911822
    27  C    1.083449
    28  H    0.147547
    29  H    0.571417
    30  H    0.300157
    31  H    0.273337
    32  H    0.220632
    33  H    0.274184
    34  H    0.210667
    35  H    0.249767
    36  H    0.191485
    37  O   -0.288890
    38  H    0.142430
    39  H    0.141274
    40  H   -0.219450
    41  H   -0.127709
    42  H   -0.219948
 Sum of Mulliken charges =   1.00000

 Dipole moment (field-independent basis, Debye):
    X=             -0.0270    Y=              0.0205    Z=             -2.4663  Tot=              2.4666
 Quadrupole moment (field-independent basis, Debye-Ang):
   XX=            -61.2559   YY=            -62.8469   ZZ=            -84.4082
   XY=             -8.8471   XZ=             -8.2336   YZ=             -6.6247

  Exact polarizability: 178.094  13.207 183.676   8.495 -10.908 151.991
 Approx polarizability: 188.096   9.006 193.424  13.515 -13.971 170.851

                      1                      2                      3
                      A                      A                      A
 Frequencies --      1.9274                16.5044                32.7693
 Red. masses --      4.2464                 4.7385                 4.6806
 Frc consts  --      0.0000                 0.0008                 0.0030
 IR Inten    --      0.4127                 1.1097                 1.3709

                      4                      5                      6
                      A                      A                      A
 Frequencies --     46.7054                54.3052                61.6571
 Red. masses --      4.6873                 4.0723                 3.9419
 Frc consts  --      0.0060                 0.0071                 0.0088
 IR Inten    --      1.2302                 0.7385                 0.0402

                      7                      8                      9
                      A                      A                      A
 Frequencies --     72.6455                77.4907                85.3949
 Red. masses --      3.4130                 3.9204                 3.7996
 Frc consts  --      0.0106                 0.0139                 0.0163
 IR Inten    --      0.5588                 0.3603                 1.3862

                     10                     11                     12
                      A                      A                      A
 Frequencies --     89.9224                95.5647               121.6978
 Red. masses --      3.9331                 1.1274                 4.2612
 Frc consts  --      0.0187                 0.0061                 0.0372
 IR Inten    --      5.2617                17.7284                 2.9857

                     13                     14                     15
                      A                      A                      A
 Frequencies --    158.7705               168.0053               171.0064
 Red. masses --      3.3301                 2.7636                 3.9002
 Frc consts  --      0.0495                 0.0460                 0.0672
 IR Inten    --      0.4849                 3.9971                13.1245

                     16                     17                     18
                      A                      A                      A
 Frequencies --    193.1514               205.0453               212.0003
 Red. masses --      3.8425                 3.5851                 2.5096
 Frc consts  --      0.0845                 0.0888                 0.0665
 IR Inten    --      6.4215                25.5400                68.2553

                     19                     20                     21
                      A                      A                      A
 Frequencies --    214.6731               241.9666               244.8411
 Red. masses --      1.6900                 1.3678                 1.4069
 Frc consts  --      0.0459                 0.0472                 0.0497
 IR Inten    --    152.0820                11.2840                48.5066

                     22                     23                     24
                      A                      A                      A
 Frequencies --    248.0203               253.7520               262.7583
 Red. masses --      1.3104                 1.9649                 2.2192
 Frc consts  --      0.0475                 0.0745                 0.0903
 IR Inten    --     24.1170                21.3940                 5.3712

                     25                     26                     27
                      A                      A                      A
 Frequencies --    279.1547               294.1360               317.3268
 Red. masses --      5.6167                 5.1035                 4.1584
 Frc consts  --      0.2579                 0.2601                 0.2467
 IR Inten    --     28.3830                19.6957                 0.4156

                     28                     29                     30
                      A                      A                      A
 Frequencies --    339.3199               401.7435               412.1157
 Red. masses --      1.1274                 2.7967                 2.7314
 Frc consts  --      0.0765                 0.2659                 0.2733
 IR Inten    --     23.7989                 3.4547                13.6478

                     31                     32                     33
                      A                      A                      A
 Frequencies --    416.5921               448.7161               516.1765
 Red. masses --      2.9673                 1.1439                 1.1093
 Frc consts  --      0.3034                 0.1357                 0.1741
 IR Inten    --     15.3509                81.0155                38.7502

                     34                     35                     36
                      A                      A                      A
 Frequencies --    547.9016               566.9965               581.4379
 Red. masses --      2.9817                 1.0884                 2.6201
 Frc consts  --      0.5274                 0.2062                 0.5219
 IR Inten    --      1.3136                73.5016                10.6498

                     37                     38                     39
                      A                      A                      A
 Frequencies --    600.7831               633.2813               642.3946
 Red. masses --      1.1208                 4.2831                 1.7916
 Frc consts  --      0.2384                 1.0121                 0.4356
 IR Inten    --     10.5738                15.7709                39.7228

                     40                     41                     42
                      A                      A                      A
 Frequencies --    654.7935               673.6857               705.6623
 Red. masses --      1.4718                 4.9210                 1.4299
 Frc consts  --      0.3718                 1.3159                 0.4195
 IR Inten    --     65.7803                 8.6852                13.4194

                     43                     44                     45
                      A                      A                      A
 Frequencies --    713.0789               719.7423               745.6718
 Red. masses --      1.1213                 1.3487                 1.0641
 Frc consts  --      0.3359                 0.4116                 0.3486
 IR Inten    --    222.6175                39.9275                28.7798

                     46                     47                     48
                      A                      A                      A
 Frequencies --    781.7005               837.7721               843.6231
 Red. masses --      1.4616                 1.5203                 2.2796
 Frc consts  --      0.5262                 0.6287                 0.9559
 IR Inten    --      3.7498                54.2630                 1.9766

                     49                     50                     51
                      A                      A                      A
 Frequencies --    874.9375               930.4331               934.5154
 Red. masses --      1.0930                 1.8503                 2.1721
 Frc consts  --      0.4930                 0.9438                 1.1176
 IR Inten    --    349.0568                19.6632                 9.2263

                     52                     53                     54
                      A                      A                      A
 Frequencies --    947.9302               955.6946               966.7668
 Red. masses --      1.6037                 1.5859                 1.5055
 Frc consts  --      0.8490                 0.8534                 0.8290
 IR Inten    --      7.3449                16.4461                33.0285

                     55                     56                     57
                      A                      A                      A
 Frequencies --    983.8420              1006.2622              1029.7816
 Red. masses --      1.4076                 1.9839                 1.4105
 Frc consts  --      0.8027                 1.1836                 0.8813
 IR Inten    --      2.0671                 4.6700                 0.2162

                     58                     59                     60
                      A                      A                      A
 Frequencies --   1040.7222              1056.0513              1074.0397
 Red. masses --      3.4419                 2.3438                 1.8481
 Frc consts  --      2.1964                 1.5401                 1.2561
 IR Inten    --     10.0093                 1.3265                17.6283

                     61                     62                     63
                      A                      A                      A
 Frequencies --   1090.3084              1117.6248              1144.9649
 Red. masses --      2.2589                 2.3168                 1.2830
 Frc consts  --      1.5822                 1.7050                 0.9910
 IR Inten    --      6.5561                 9.5756                 3.4243

                     64                     65                     66
                      A                      A                      A
 Frequencies --   1150.6589              1194.6872              1214.1048
 Red. masses --      1.4976                 1.9136                 1.3139
 Frc consts  --      1.1682                 1.6092                 1.1411
 IR Inten    --      8.4778                15.5826                 7.2458

                     67                     68                     69
                      A                      A                      A
 Frequencies --   1228.4140              1243.2737              1258.6970
 Red. masses --      1.4628                 1.6986                 1.8495
 Frc consts  --      1.3006                 1.5469                 1.7264
 IR Inten    --      6.3958                10.1567                11.6573

                     70                     71                     72
                      A                      A                      A
 Frequencies --   1263.3821              1292.7721              1298.7858
 Red. masses --      1.6736                 1.5849                 1.3364
 Frc consts  --      1.5739                 1.5606                 1.3282
 IR Inten    --     10.2332                 3.4155                 8.1873

                     73                     74                     75
                      A                      A                      A
 Frequencies --   1307.8693              1329.0828              1330.7719
 Red. masses --      1.0929                 1.5237                 1.7309
 Frc consts  --      1.1015                 1.5858                 1.8060
 IR Inten    --     61.9748                16.8231                11.0597

                     76                     77                     78
                      A                      A                      A
 Frequencies --   1361.0998              1374.9477              1381.9178
 Red. masses --      1.3315                 1.9155                 1.5413
 Frc consts  --      1.4533                 2.1336                 1.7342
 IR Inten    --      3.0331                10.1460                 6.1736

                     79                     80                     81
                      A                      A                      A
 Frequencies --   1405.9507              1443.0401              1453.6538
 Red. masses --      1.8625                 1.5686                 1.2309
 Frc consts  --      2.1691                 1.9245                 1.5325
 IR Inten    --      1.9796                22.5303                 8.1680

                     82                     83                     84
                      A                      A                      A
 Frequencies --   1483.6062              1486.1053              1490.4914
 Red. masses --      1.0464                 1.0705                 1.0710
 Frc consts  --      1.3571                 1.3930                 1.4019
 IR Inten    --     16.0557                 8.0105                 5.8457

                     85                     86                     87
                      A                      A                      A
 Frequencies --   1506.9585              1517.5291              1526.9553
 Red. masses --      1.0950                 1.7365                 1.2583
 Frc consts  --      1.4651                 2.3562                 1.7285
 IR Inten    --     10.6723                54.5254                13.6514

                     88                     89                     90
                      A                      A                      A
 Frequencies --   1621.6121              1631.8111              1643.9265
 Red. masses --      2.1115                 1.0851                 1.0745
 Frc consts  --      3.2714                 1.7025                 1.7109
 IR Inten    --     89.1238                55.4802                80.8422

                     91                     92                     93
                      A                      A                      A
 Frequencies --   1670.4467              1694.4417              1706.0599
 Red. masses --      1.0738                 1.0935                 1.5176
 Frc consts  --      1.7653                 1.8498                 2.6025
 IR Inten    --    108.9453                 7.9330                49.2373

                     94                     95                     96
                      A                      A                      A
 Frequencies --   1713.5023              1716.6181              2614.4670
 Red. masses --      4.1497                 1.6865                 1.1145
 Frc consts  --      7.1785                 2.9282                 4.4883
 IR Inten    --     16.8111                61.7551              2010.4841

                     97                     98                     99
                      A                      A                      A
 Frequencies --   2977.0470              3001.0076              3001.9694
 Red. masses --      1.0839                 1.0486                 1.0705
 Frc consts  --      5.6598                 5.5641                 5.6840
 IR Inten    --     60.7520                57.1025                95.6925

                    100                    101                    102
                      A                      A                      A
 Frequencies --   3088.6431              3102.3684              3111.0238
 Red. masses --      1.0633                 1.0681                 1.0877
 Frc consts  --      5.9763                 6.0569                 6.2027
 IR Inten    --     13.3376                15.1733                14.8616

                    103                    104                    105
                      A                      A                      A
 Frequencies --   3116.3959              3143.6792              3151.2309
 Red. masses --      1.0901                 1.1049                 1.1043
 Frc consts  --      6.2376                 6.4334                 6.4609
 IR Inten    --     15.8489                 3.8016                12.3338

                    106                    107                    108
                      A                      A                      A
 Frequencies --   3163.1462              3170.8988              3211.5531
 Red. masses --      1.1056                 1.0696                 1.0924
 Frc consts  --      6.5177                 6.3365                 6.6386
 IR Inten    --     47.3948              1258.6804                 1.1424

                    109                    110                    111
                      A                      A                      A
 Frequencies --   3243.6186              3259.7605              3271.4685
 Red. masses --      1.0932                 1.1001                 1.0941
 Frc consts  --      6.7763                 6.8871                 6.8991
 IR Inten    --      1.7287                 2.8101                63.5829

                    112                    113                    114
                      A                      A                      A
 Frequencies --   3508.7120              3659.6731              3672.2002
 Red. masses --      1.0627                 1.0549                 1.0555
 Frc consts  --      7.7080                 8.3239                 8.3858
 IR Inten    --    613.0563               166.0155               565.4070

                    115                    116                    117
                      A                      A                      A
 Frequencies --   3719.1823              3759.4311              3876.1926
 Red. masses --      1.0665                 1.0786                 1.0454
 Frc consts  --      8.6918                 8.9813                 9.2540
 IR Inten    --    287.9559               651.2780                18.0331

                    118                    119                    120
                      A                      A                      A
 Frequencies --   3931.9709              3947.0712              3981.3403
 Red. masses --      1.0665                 1.0712                 1.0827
 Frc consts  --      9.7144                 9.8326                10.1111
 IR Inten    --     91.6308               130.0103               103.5896

 - Thermochemistry -
 -------------------
 Temperature   130.000 Kelvin.  Pressure   1.00000 Atm.
 Atom     1 has atomic number  6 and mass  12.00000

 Molecular mass:   253.17635 amu.
 Principal axes and moments of inertia in atomic units:
                           1         2         3
     Eigenvalues --  4538.504836161.831077552.75279
           X            0.99998   0.00361  -0.00444
           Y           -0.00362   0.99999  -0.00163
           Z            0.00444   0.00164   0.99999
 This molecule is an asymmetric top.
 Rotational symmetry number  1.
 Warning -- assumption of classical behavior for rotation
           may cause significant error
 Rotational temperatures (Kelvin)      0.01908     0.01406     0.01147
 Rotational constants (GHZ):           0.39765     0.29289     0.23895
 Zero-point vibrational energy     967692.1 (Joules/Mol)
                                  231.28396 (Kcal/Mol)
 Warning -- explicit consideration of  24 degrees of freedom as
           vibrations may cause significant error
 Vibrational temperatures:      2.77    23.75    47.15    67.20    78.13
          (Kelvin)             88.71   104.52   111.49   122.86   129.38
                              137.50   175.10   228.44   241.72   246.04
                              277.90   295.01   305.02   308.87   348.14
                              352.27   356.85   365.09   378.05   401.64
                              423.20   456.56   488.21   578.02   592.94
                              599.38   645.60   742.66   788.31   815.78
                              836.56   864.39   911.15   924.26   942.10
                              969.28  1015.29  1025.96  1035.55  1072.86
                             1124.69  1205.37  1213.79  1258.84  1338.69
                             1344.56  1363.86  1375.03  1390.96  1415.53
                             1447.79  1481.63  1497.37  1519.42  1545.30
                             1568.71  1608.01  1647.35  1655.54  1718.89
                             1746.83  1767.41  1788.79  1810.98  1817.73
                             1860.01  1868.66  1881.73  1912.25  1914.68
                             1958.32  1978.24  1988.27  2022.85  2076.21
                             2091.48  2134.58  2138.17  2144.48  2168.18
                             2183.39  2196.95  2333.14  2347.81  2365.24
                             2403.40  2437.92  2454.64  2465.35  2469.83
                             3761.63  4283.31  4317.78  4319.16  4443.87
                             4463.62  4476.07  4483.80  4523.05  4533.92
                             4551.06  4562.22  4620.71  4666.84  4690.07
                             4706.91  5048.25  5265.45  5283.48  5351.07
                             5408.98  5576.98  5657.23  5678.96  5728.26

 Zero-point correction=                           0.368574 (Hartree/Particle)
 Thermal correction to Energy=                    0.374831
 Thermal correction to Enthalpy=                  0.375243
 Thermal correction to Gibbs Free Energy=         0.350226
 Sum of electronic and zero-point Energies=           -881.101822
 Sum of electronic and thermal Energies=              -881.095566
 Sum of electronic and thermal Enthalpies=            -881.095154
 Sum of electronic and thermal Free Energies=         -881.120171

                     E (Thermal)             CV                S
                      KCal/Mol        Cal/Mol-Kelvin    Cal/Mol-Kelvin
 Total                  235.210             50.217            120.756
 Electronic               0.000              0.000              0.000
 Translational            0.388              2.981             38.363
 Rotational               0.388              2.981             31.238
 Vibrational            234.435             44.255             51.155
 Vibration     1          0.258              1.987              9.633
 Vibration     2          0.259              1.982              5.368
 Vibration     3          0.261              1.966              4.014
 Vibration     4          0.264              1.944              3.321
 Vibration     5          0.266              1.928              3.029
 Vibration     6          0.268              1.912              2.785
 Vibration     7          0.272              1.884              2.473
 Vibration     8          0.274              1.870              2.352
 Vibration     9          0.277              1.846              2.172
 Vibration    10          0.279              1.831              2.077
 Vibration    11          0.282              1.812              1.966
 Vibration    12          0.296              1.712              1.539
 Vibration    13          0.322              1.546              1.104
 Vibration    14          0.329              1.502              1.018
 Vibration    15          0.331              1.487              0.992
 Vibration    16          0.350              1.376              0.817
 Vibration    17          0.361              1.316              0.737
 Vibration    18          0.367              1.281              0.694
 Vibration    19          0.370              1.267              0.678
 Vibration    20          0.397              1.129              0.534
 Vibration    21          0.400              1.115              0.521
 Vibration    22          0.403              1.099              0.507
 Vibration    23          0.409              1.070              0.482
 Vibration    24          0.419              1.026              0.445

                           ! Non-Optimized Parameters !
 Normal termination of Gaussian 16 at Thu Jul 15 17:09:43 2021.
