 Gaussian 16, Revision A.03,
 Gaussian 16:  ES64L-G16RevA.03 25-Dec-2016

 ---------------------------------------------
 # wB97XD/aug-cc-pVDZ opt freq Temperature=130
 ---------------------------------------------

 --------
 Nicotine
 --------
 Symbolic Z-matrix:
 Charge =  1 Multiplicity = 1

 SCF Done:  E(RwB97XD) =  -728.585473835     A.U. after   14 cycles
 SCF Done:  E(RwB97XD) =  -728.580287607     A.U. after   15 cycles
 SCF Done:  E(RwB97XD) =  -728.587809790     A.U. after   14 cycles
 SCF Done:  E(RwB97XD) =  -728.588791730     A.U. after   15 cycles
 SCF Done:  E(RwB97XD) =  -728.588777668     A.U. after   15 cycles
 SCF Done:  E(RwB97XD) =  -728.589732684     A.U. after   13 cycles
 SCF Done:  E(RwB97XD) =  -728.589863190     A.U. after   15 cycles
 SCF Done:  E(RwB97XD) =  -728.589977367     A.U. after   13 cycles
 SCF Done:  E(RwB97XD) =  -728.590189380     A.U. after   12 cycles
 SCF Done:  E(RwB97XD) =  -728.590229678     A.U. after   12 cycles
 SCF Done:  E(RwB97XD) =  -728.590323933     A.U. after   10 cycles
 SCF Done:  E(RwB97XD) =  -728.590327330     A.U. after   11 cycles
 SCF Done:  E(RwB97XD) =  -728.590328401     A.U. after   10 cycles
 SCF Done:  E(RwB97XD) =  -728.590328969     A.U. after   10 cycles
 SCF Done:  E(RwB97XD) =  -728.590329294     A.U. after    9 cycles
 SCF Done:  E(RwB97XD) =  -728.590329506     A.U. after    9 cycles
 SCF Done:  E(RwB97XD) =  -728.590329639     A.U. after    8 cycles
 SCF Done:  E(RwB97XD) =  -728.590329744     A.U. after    9 cycles
 SCF Done:  E(RwB97XD) =  -728.590329785     A.U. after    8 cycles
 Optimization completed.
    -- Stationary point found.
 Normal termination of Gaussian 16 at Mon Jul 12 14:52:12 2021.

 ----------------------------------------------------------------------
 #N Geom=AllCheck Guess=TCheck SCRF=Check GenChk RwB97XD/Aug-CC-pVDZ Fr
 eq
 ----------------------------------------------------------------------

 Structure from the checkpoint file:  "NicPyrNs3h5.chk"
 --------
 Nicotine
 --------
 Charge =  1 Multiplicity = 1

                         Standard orientation:
 ---------------------------------------------------------------------
 Center     Atomic      Atomic             Coordinates (Angstroms)
 Number     Number       Type             X           Y           Z
 ---------------------------------------------------------------------
      1          7           0        1.405286   -1.276407    0.216663
      2          6           0        1.887218    0.141754    0.531807
      3          6           0        3.160731    0.310682   -0.303753
      4          6           0        3.708939   -1.109765   -0.421768
      5          6           0        2.443258   -1.914217   -0.673777
      6          6           0        0.801420    1.173393    0.313976
      7          6           0       -0.526980    0.902311    0.642441
      8          7           0       -1.537115    1.748949    0.444613
      9          6           0       -1.250814    2.954529   -0.052985
     10          6           0        0.046280    3.349280   -0.373170
     11          6           0        1.084710    2.441082   -0.198614
     12          8           0       -0.906972   -1.707598   -1.096039
     13          8           0       -3.036714   -0.668204    0.058788
     14          1           0        2.510404   -2.980411   -0.441435
     15          1           0        4.195424   -1.425925    0.510737
     16          1           0        4.431263   -1.225379   -1.235415
     17          1           0        2.912666    0.701412   -1.299834
     18          1           0        3.857605    1.006608    0.173652
     19          1           0        2.097355   -1.796498   -1.707046
     20          1           0        2.161508    0.120531    1.594914
     21          1           0       -0.820652   -0.059050    1.066390
     22          1           0       -2.092662    3.631134   -0.202589
     23          1           0        0.235157    4.346056   -0.767005
     24          1           0        2.101873    2.728960   -0.461925
     25          6           0        1.146160   -2.082819    1.437446
     26          1           0        0.506514   -1.265915   -0.326437
     27          1           0       -1.765609   -1.357010   -0.742309
     28          1           0       -1.069027   -1.970782   -2.003825
     29          1           0       -2.972889    0.288045    0.205702
     30          1           0       -3.978567   -0.900569   -0.015326
     31          8           0       -5.693248   -1.426641   -0.135861
     32          1           0       -6.330275   -1.181971   -0.811757
     33          1           0       -6.209941   -1.715346    0.620769
     34          1           0        2.093431   -2.269772    1.954051
     35          1           0        0.680715   -3.026066    1.137966
     36          1           0        0.468454   -1.533681    2.097076
 ---------------------------------------------------------------------

 SCF Done:  E(RwB97XD) =  -728.590329785     A.U. after    1 cycles

 The electronic state is 1-A.
 Alpha  occ. eigenvalues --  -19.38965 -19.38730 -19.36215 -14.68624 -14.57412
 Alpha  occ. eigenvalues --  -10.49802 -10.48453 -10.48059 -10.45908 -10.45287
 Alpha  occ. eigenvalues --  -10.44836 -10.44323 -10.44222 -10.44160 -10.42714
 Alpha  occ. eigenvalues --   -1.24917  -1.23369  -1.22894  -1.20222  -1.17306
 Alpha  occ. eigenvalues --   -1.06543  -1.04299  -1.00745  -0.96753  -0.94879
 Alpha  occ. eigenvalues --   -0.87283  -0.86228  -0.83995  -0.82974  -0.78234
 Alpha  occ. eigenvalues --   -0.75257  -0.74610  -0.73739  -0.73289  -0.71879
 Alpha  occ. eigenvalues --   -0.71347  -0.69931  -0.68649  -0.66489  -0.65930
 Alpha  occ. eigenvalues --   -0.64309  -0.63775  -0.62666  -0.61595  -0.61034
 Alpha  occ. eigenvalues --   -0.60870  -0.59713  -0.58644  -0.58175  -0.57927
 Alpha  occ. eigenvalues --   -0.57041  -0.56087  -0.55476  -0.52571  -0.51847
 Alpha  occ. eigenvalues --   -0.50031  -0.48924  -0.46835  -0.45899
 Alpha virt. eigenvalues --   -0.08806  -0.07945  -0.06399  -0.05447  -0.04925
 Alpha virt. eigenvalues --   -0.04655  -0.03800  -0.03167  -0.02896  -0.02582
 Alpha virt. eigenvalues --   -0.02192  -0.01683  -0.01047  -0.00938  -0.00484

 Mulliken charges:
               1
     1  N   -0.096198
     2  C    0.972235
     3  C    0.675734
     4  C    0.821724
     5  C    1.006354
     6  C    1.348936
     7  C    0.489728
     8  N   -0.304284
     9  C    0.129158
    10  C    0.566172
    11  C    1.143683
    12  O   -0.574091
    13  O   -0.448381
    14  H   -0.394362
    15  H   -0.201448
    16  H   -0.259679
    17  H   -0.400048
    18  H   -0.385252
    19  H   -0.451434
    20  H   -0.445638
    21  H   -1.205742
    22  H   -0.560410
    23  H   -0.600381
    24  H   -0.879373
    25  C    0.605579
    26  H    0.076795
    27  H    0.329170
    28  H    0.180089
    29  H    0.192472
    30  H    0.246187
    31  O   -0.289403
    32  H    0.138708
    33  H    0.137799
    34  H   -0.159180
    35  H   -0.227320
    36  H   -0.177900
 Sum of Mulliken charges =   1.00000

 Dipole moment (field-independent basis, Debye):
    X=              1.5955    Y=             -2.4303    Z=             -0.6971  Tot=              2.9896
 Quadrupole moment (field-independent basis, Debye-Ang):
   XX=            -22.2160   YY=            -65.2379   ZZ=            -81.1899
   XY=              0.1234   XZ=              2.5932   YZ=             -3.4464

  Exact polarizability: 171.815  -9.306 164.803  -4.612  -9.068 115.271
 Approx polarizability: 177.975  -4.244 173.569  -4.582 -12.490 140.430

                      1                      2                      3
                      A                      A                      A
 Frequencies --     18.6215                31.5015                40.1760
 Red. masses --      4.0089                 4.9936                 3.8415
 Frc consts  --      0.0008                 0.0029                 0.0037
 IR Inten    --      1.2748                 1.2264                 3.2349

                      4                      5                      6
                      A                      A                      A
 Frequencies --     56.7576                69.0813                83.2373
 Red. masses --      4.0155                 5.0865                 1.0398
 Frc consts  --      0.0076                 0.0143                 0.0042
 IR Inten    --      0.4789                 5.4660                14.7825

                      7                      8                      9
                      A                      A                      A
 Frequencies --     93.4937               102.4511               118.8348
 Red. masses --      6.5450                 2.8487                 3.1817
 Frc consts  --      0.0337                 0.0176                 0.0265
 IR Inten    --      4.7035                 3.1513                 5.3544

                     10                     11                     12
                      A                      A                      A
 Frequencies --    144.4663               151.3716               163.4458
 Red. masses --      1.3911                 2.6204                 1.3407
 Frc consts  --      0.0171                 0.0354                 0.0211
 IR Inten    --     80.4205                51.5875               158.4824

                     13                     14                     15
                      A                      A                      A
 Frequencies --    173.7982               208.9567               234.7767
 Red. masses --      3.0449                 5.3284                 2.3459
 Frc consts  --      0.0542                 0.1371                 0.0762
 IR Inten    --     35.3457                28.8818                10.3052

                     16                     17                     18
                      A                      A                      A
 Frequencies --    237.1871               253.4044               273.2039
 Red. masses --      1.4950                 2.1326                 1.1419
 Frc consts  --      0.0496                 0.0807                 0.0502
 IR Inten    --      7.7082                 1.4081                 0.1170

                     19                     20                     21
                      A                      A                      A
 Frequencies --    310.1750               323.6509               338.5047
 Red. masses --      3.0122                 3.0835                 5.0604
 Frc consts  --      0.1707                 0.1903                 0.3416
 IR Inten    --      1.4093                 2.1723                15.5925

                     22                     23                     24
                      A                      A                      A
 Frequencies --    407.9849               419.6456               450.4510
 Red. masses --      3.2915                 3.1876                 2.6347
 Frc consts  --      0.3228                 0.3307                 0.3150
 IR Inten    --      1.9190                 3.8159                 1.9665

                     25                     26                     27
                      A                      A                      A
 Frequencies --    481.2336               559.5853               570.8926
 Red. masses --      3.1988                 1.1639                 1.4492
 Frc consts  --      0.4365                 0.2147                 0.2783
 IR Inten    --      2.1007                83.2588                31.8792

                     28                     29                     30
                      A                      A                      A
 Frequencies --    580.2788               604.7214               622.5019
 Red. masses --      1.2688                 1.1345                 2.5762
 Frc consts  --      0.2517                 0.2444                 0.5882
 IR Inten    --     39.0481                58.7927                 0.1578

                     31                     32                     33
                      A                      A                      A
 Frequencies --    640.3916               685.3830               738.2325
 Red. masses --      5.2349                 5.2976                 1.1855
 Frc consts  --      1.2649                 1.4662                 0.3806
 IR Inten    --     17.2184                 4.8890                75.2027

                     34                     35                     36
                      A                      A                      A
 Frequencies --    742.7635               802.9415               836.6707
 Red. masses --      1.7411                 2.0754                 1.7426
 Frc consts  --      0.5659                 0.7884                 0.7187
 IR Inten    --     86.9402                 9.0469                 8.6115

                     37                     38                     39
                      A                      A                      A
 Frequencies --    858.9437               883.4672               913.8838
 Red. masses --      2.2843                 2.8188                 1.0541
 Frc consts  --      0.9930                 1.2963                 0.5187
 IR Inten    --      7.7362                 0.3175               117.6353

                     40                     41                     42
                      A                      A                      A
 Frequencies --    927.7458               947.7659               967.4482
 Red. masses --      1.6108                 2.3170                 2.1492
 Frc consts  --      0.8169                 1.2262                 1.1852
 IR Inten    --      6.2293                 2.2345                11.9459

                     43                     44                     45
                      A                      A                      A
 Frequencies --    982.4919              1002.9124              1030.9037
 Red. masses --      1.3285                 1.3788                 1.4938
 Frc consts  --      0.7555                 0.8171                 0.9354
 IR Inten    --      0.5274                 1.3197                 2.9203

                     46                     47                     48
                      A                      A                      A
 Frequencies --   1034.6188              1047.2867              1050.2028
 Red. masses --      2.0859                 3.3016                 2.6466
 Frc consts  --      1.3155                 2.1335                 1.7199
 IR Inten    --     11.9769                 5.9147                14.0601

                     49                     50                     51
                      A                      A                      A
 Frequencies --   1081.0755              1089.5099              1115.8780
 Red. masses --      1.7618                 2.3094                 2.0452
 Frc consts  --      1.2131                 1.6151                 1.5004
 IR Inten    --     13.6087                 2.6291                 0.9221

                     52                     53                     54
                      A                      A                      A
 Frequencies --   1146.0075              1167.8440              1201.3908
 Red. masses --      1.4599                 1.4288                 1.4124
 Frc consts  --      1.1297                 1.1482                 1.2011
 IR Inten    --      3.6991                 9.3558                 1.4051

                     55                     56                     57
                      A                      A                      A
 Frequencies --   1211.0362              1229.1784              1244.4154
 Red. masses --      1.7337                 1.6826                 1.5374
 Frc consts  --      1.4981                 1.4979                 1.4027
 IR Inten    --      2.2857                 9.3798                 0.1102

                     58                     59                     60
                      A                      A                      A
 Frequencies --   1267.8096              1301.8919              1308.6931
 Red. masses --      1.6222                 1.5582                 2.1364
 Frc consts  --      1.5363                 1.5560                 2.1558
 IR Inten    --      4.6197                 4.6166                 0.4276

                     61                     62                     63
                      A                      A                      A
 Frequencies --   1316.5784              1344.0355              1363.8589
 Red. masses --      1.7372                 1.4789                 1.3882
 Frc consts  --      1.7742                 1.5740                 1.5213
 IR Inten    --      1.0159                 3.5586                 3.1518

                     64                     65                     66
                      A                      A                      A
 Frequencies --   1370.5876              1388.1545              1392.9889
 Red. masses --      1.3132                 1.4095                 1.2655
 Frc consts  --      1.4534                 1.6002                 1.4468
 IR Inten    --      4.9008                 7.7035                 3.6192

                     67                     68                     69
                      A                      A                      A
 Frequencies --   1457.5073              1468.8286              1481.8201
 Red. masses --      1.1822                 1.6607                 1.4485
 Frc consts  --      1.4797                 2.1110                 1.8739
 IR Inten    --     12.0257                49.6431                 0.7603

                     70                     71                     72
                      A                      A                      A
 Frequencies --   1486.1123              1488.8694              1497.8806
 Red. masses --      1.0608                 1.0791                 1.1138
 Frc consts  --      1.3803                 1.4093                 1.4724
 IR Inten    --      4.5026                13.7279                 3.0897

                     73                     74                     75
                      A                      A                      A
 Frequencies --   1501.3273              1515.5717              1533.0209
 Red. masses --      1.1132                 1.1114                 2.2635
 Frc consts  --      1.4783                 1.5041                 3.1342
 IR Inten    --     42.2896                11.8437                21.1269

                     76                     77                     78
                      A                      A                      A
 Frequencies --   1576.9018              1627.9352              1647.2426
 Red. masses --      1.1256                 1.0903                 1.2203
 Frc consts  --      1.6491                 1.7024                 1.9509
 IR Inten    --     12.3959               160.3385                30.2667

                     79                     80                     81
                      A                      A                      A
 Frequencies --   1659.7702              1681.9874              1689.1037
 Red. masses --      3.5202                 5.1990                 1.1085
 Frc consts  --      5.7136                 8.6659                 1.8634
 IR Inten    --      4.4621                11.7850                27.6990

                     82                     83                     84
                      A                      A                      A
 Frequencies --   3000.1975              3078.9040              3084.2864
 Red. masses --      1.0866                 1.0712                 1.0473
 Frc consts  --      5.7625                 5.9832                 5.8696
 IR Inten    --   1118.3010                 1.3446                 2.4269

                     85                     86                     87
                      A                      A                      A
 Frequencies --   3085.1588              3090.1601              3108.0902
 Red. masses --      1.0630                 1.0695                 1.0628
 Frc consts  --      5.9611                 6.0170                 6.0490
 IR Inten    --     13.4024                10.6613                10.5344

                     88                     89                     90
                      A                      A                      A
 Frequencies --   3156.8803              3165.3146              3180.9388
 Red. masses --      1.1019                 1.1019                 1.1084
 Frc consts  --      6.4704                 6.5044                 6.6077
 IR Inten    --      2.7806                 5.0559                 2.9253

                     91                     92                     93
                      A                      A                      A
 Frequencies --   3187.8288              3193.7212              3199.4052
 Red. masses --      1.1059                 1.0968                 1.1033
 Frc consts  --      6.6212                 6.5914                 6.6538
 IR Inten    --      2.9383                 7.5021                 0.8093

                     94                     95                     96
                      A                      A                      A
 Frequencies --   3207.3730              3217.2334              3237.7487
 Red. masses --      1.0908                 1.0917                 1.0989
 Frc consts  --      6.6111                 6.6576                 6.7872
 IR Inten    --      3.3404                 3.7889                 1.9214

                     97                     98                     99
                      A                      A                      A
 Frequencies --   3295.0570              3655.9372              3754.5972
 Red. masses --      1.0657                 1.0504                 1.0817
 Frc consts  --      6.8171                 8.2716                 8.9847
 IR Inten    --    960.1975               405.2308               872.7194

                    100                    101                    102
                      A                      A                      A
 Frequencies --   3881.1025              3950.4898              3987.9893
 Red. masses --      1.0452                 1.0668                 1.0830
 Frc consts  --      9.2761                 9.8088                10.1480
 IR Inten    --     20.9462                90.1014               108.0165

 - Thermochemistry -
 -------------------
 Temperature   130.000 Kelvin.  Pressure   1.00000 Atm.
 Atom     1 has atomic number  7 and mass  14.00307

 Molecular mass:   217.15522 amu.
 Principal axes and moments of inertia in atomic units:
                           1         2         3
     Eigenvalues --  2793.598695333.458657450.50068
           X            1.00000  -0.00018   0.00044
           Y            0.00019   0.99994  -0.01086
           Z           -0.00044   0.01086   0.99994
 This molecule is an asymmetric top.
 Rotational symmetry number  1.
 Warning -- assumption of classical behavior for rotation
           may cause significant error
 Rotational temperatures (Kelvin)      0.03100     0.01624     0.01163
 Rotational constants (GHZ):           0.64603     0.33838     0.24223
 Zero-point vibrational energy     836139.9 (Joules/Mol)
                                  199.84223 (Kcal/Mol)
 Warning -- explicit consideration of  17 degrees of freedom as
           vibrations may cause significant error
 Vibrational temperatures:     26.79    45.32    57.80    81.66    99.39
          (Kelvin)            119.76   134.52   147.40   170.98   207.85
                              217.79   235.16   250.06   300.64   337.79
                              341.26   364.59   393.08   446.27   465.66
                              487.03   587.00   603.78   648.10   692.39
                              805.12   821.39   834.89   870.06   895.64
                              921.38   986.11  1062.15  1068.67  1155.25
                             1203.78  1235.83  1271.11  1314.87  1334.82
                             1363.62  1391.94  1413.59  1442.97  1483.24
                             1488.59  1506.81  1511.01  1555.43  1567.56
                             1605.50  1648.85  1680.27  1728.53  1742.41
                             1768.51  1790.44  1824.10  1873.13  1882.92
                             1894.26  1933.77  1962.29  1971.97  1997.24
                             2004.20  2097.03  2113.32  2132.01  2138.18
                             2142.15  2155.12  2160.08  2180.57  2205.68
                             2268.81  2342.24  2370.01  2388.04  2420.00
                             2430.24  4316.62  4429.86  4437.60  4438.86
                             4446.05  4471.85  4542.05  4554.18  4576.66
                             4586.57  4595.05  4603.23  4614.69  4628.88
                             4658.40  4740.85  5260.08  5402.03  5584.04
                             5683.87  5737.83

 Zero-point correction=                           0.318469 (Hartree/Particle)
 Thermal correction to Energy=                    0.323461
 Thermal correction to Enthalpy=                  0.323873
 Thermal correction to Gibbs Free Energy=         0.302535
 Sum of electronic and zero-point Energies=           -728.271861
 Sum of electronic and thermal Energies=              -728.266869
 Sum of electronic and thermal Enthalpies=            -728.266457
 Sum of electronic and thermal Free Energies=         -728.287795

                     E (Thermal)             CV                S
                      KCal/Mol        Cal/Mol-Kelvin    Cal/Mol-Kelvin
 Total                  202.975             39.430            102.996
 Electronic               0.000              0.000              0.000
 Translational            0.388              2.981             37.906
 Rotational               0.388              2.981             30.599
 Vibrational            202.200             33.469             34.492
 Vibration     1          0.259              1.980              5.129
 Vibration     2          0.261              1.967              4.091
 Vibration     3          0.263              1.955              3.614
 Vibration     4          0.267              1.923              2.944
 Vibration     5          0.271              1.893              2.568
 Vibration     6          0.276              1.852              2.219
 Vibration     7          0.281              1.819              2.006
 Vibration     8          0.285              1.787              1.841
 Vibration     9          0.295              1.724              1.580
 Vibration    10          0.311              1.613              1.254
 Vibration    11          0.316              1.581              1.179
 Vibration    12          0.325              1.524              1.060
 Vibration    13          0.333              1.473              0.968
 Vibration    14          0.364              1.296              0.712
 Vibration    15          0.390              1.165              0.569
 Vibration    16          0.392              1.153              0.557
 Vibration    17          0.409              1.072              0.483

                           ! Non-Optimized Parameters !
 Normal termination of Gaussian 16 at Mon Jul 12 15:41:00 2021.
