 Gaussian 16, Revision A.03,
 Gaussian 16:  ES64L-G16RevA.03 25-Dec-2016

 -----------------------------
 # wB97XD/aug-cc-pVDZ opt freq
 -----------------------------

 ----
 blah
 ----
 Symbolic Z-matrix:
 Charge =  1 Multiplicity = 1

 SCF Done:  E(RwB97XD) =  -728.585871221     A.U. after   14 cycles
 SCF Done:  E(RwB97XD) =  -728.586553672     A.U. after   14 cycles
 SCF Done:  E(RwB97XD) =  -728.585802560     A.U. after   15 cycles
 SCF Done:  E(RwB97XD) =  -728.586731282     A.U. after   13 cycles
 SCF Done:  E(RwB97XD) =  -728.587183833     A.U. after   13 cycles
 SCF Done:  E(RwB97XD) =  -728.586794472     A.U. after   15 cycles
 SCF Done:  E(RwB97XD) =  -728.587186783     A.U. after   15 cycles
 SCF Done:  E(RwB97XD) =  -728.587327327     A.U. after   13 cycles
 SCF Done:  E(RwB97XD) =  -728.587373423     A.U. after   11 cycles
 SCF Done:  E(RwB97XD) =  -728.587388320     A.U. after   11 cycles
 SCF Done:  E(RwB97XD) =  -728.587444302     A.U. after   10 cycles
 SCF Done:  E(RwB97XD) =  -728.587446882     A.U. after   10 cycles
 SCF Done:  E(RwB97XD) =  -728.587447883     A.U. after   10 cycles
 SCF Done:  E(RwB97XD) =  -728.587448296     A.U. after    9 cycles
 SCF Done:  E(RwB97XD) =  -728.587448509     A.U. after    9 cycles
 SCF Done:  E(RwB97XD) =  -728.587448544     A.U. after    8 cycles
 SCF Done:  E(RwB97XD) =  -728.587448574     A.U. after    8 cycles
 SCF Done:  E(RwB97XD) =  -728.587448593     A.U. after    8 cycles
 SCF Done:  E(RwB97XD) =  -728.587448606     A.U. after    8 cycles
 Optimization completed.
    -- Stationary point found.
 Normal termination of Gaussian 16 at Thu Jan 26 15:46:22 2023.

 ----------------------------------------------------------------------
 #N Geom=AllCheck Guess=TCheck SCRF=Check GenChk RwB97XD/Aug-CC-pVDZ Fr
 eq
 ----------------------------------------------------------------------

 Structure from the checkpoint file:  "/gscratch/scrubbed/gds001/Gau-22916.chk"
 ----
 blah
 ----
 Charge =  1 Multiplicity = 1

                         Standard orientation:
 ---------------------------------------------------------------------
 Center     Atomic      Atomic             Coordinates (Angstroms)
 Number     Number       Type             X           Y           Z
 ---------------------------------------------------------------------
      1          6           0        2.319292    1.632534   -1.059877
      2          6           0        2.088235    0.738044    0.185305
      3          7           0        3.409023    0.222442    0.508838
      4          6           0        4.325830    1.333743    0.267632
      5          6           0        3.838286    1.922211   -1.055629
      6          6           0        1.107078   -0.381139   -0.069703
      7          6           0       -0.203636   -0.307418    0.371160
      8          7           0       -1.076686   -1.293796    0.104129
      9          6           0       -0.736049   -2.391165   -0.585097
     10          6           0        0.561622   -2.534345   -1.047116
     11          6           0        1.483444   -1.524401   -0.786576
     12          6           0        3.512840   -0.342960    1.841212
     13          1           0        1.691625    1.362538    1.014020
     14          1           0        2.017065    1.111030   -1.975894
     15          1           0        1.714596    2.543811   -0.991239
     16          1           0        4.325159    1.417289   -1.897419
     17          1           0        4.058338    2.991838   -1.134596
     18          1           0        4.255686    2.086081    1.079611
     19          1           0        5.360155    0.972026    0.232223
     20          1           0        2.517415   -1.608173   -1.121115
     21          1           0       -1.520290   -3.127698   -0.741869
     22          1           0       -2.066323   -1.204011    0.457305
     23          1           0       -0.591113    0.530855    0.946835
     24          1           0        2.833666   -1.199296    1.948023
     25          1           0        3.270281    0.396758    2.630314
     26          1           0        4.534484   -0.703307    2.007609
     27          1           0        0.840669   -3.427429   -1.601345
     28          8           0       -3.571373   -1.071919    0.963763
     29          1           0       -3.938244   -1.366582    1.799411
     30          1           0       -4.302180   -0.643939    0.454591
     31          8           0       -5.460402    0.085289   -0.481670
     32          1           0       -5.883028    0.935774   -0.256004
     33          1           0       -6.109743   -0.414171   -0.981352
     34          8           0       -6.609428    2.500194    0.159545
     35          1           0       -7.318610    2.630766    0.794569
     36          1           0       -6.667982    3.236175   -0.455408
 ---------------------------------------------------------------------

 SCF Done:  E(RwB97XD) =  -728.587448606     A.U. after    1 cycles

 The electronic state is 1-A.
 Alpha  occ. eigenvalues --  -19.39977 -19.39211 -19.38131 -14.67097 -14.54753
 Alpha  occ. eigenvalues --  -10.50578 -10.50219 -10.46732 -10.46330 -10.46239
 Alpha  occ. eigenvalues --  -10.44719 -10.41036 -10.40990 -10.40112 -10.38715
 Alpha  occ. eigenvalues --   -1.25458  -1.24445  -1.23664  -1.21912  -1.15262
 Alpha  occ. eigenvalues --   -1.07307  -1.04063  -0.98611  -0.94545  -0.89902
 Alpha  occ. eigenvalues --   -0.88287  -0.87057  -0.82205  -0.77982  -0.76802
 Alpha  occ. eigenvalues --   -0.75049  -0.74708  -0.74299  -0.73682  -0.72972
 Alpha  occ. eigenvalues --   -0.70119  -0.68301  -0.67974  -0.67238  -0.64073
 Alpha  occ. eigenvalues --   -0.63531  -0.62818  -0.61907  -0.61532  -0.59630
 Alpha  occ. eigenvalues --   -0.59006  -0.57139  -0.56596  -0.55661  -0.54782
 Alpha  occ. eigenvalues --   -0.53847  -0.53090  -0.52840  -0.52261  -0.51932
 Alpha  occ. eigenvalues --   -0.51599  -0.50315  -0.48444  -0.40813
 Alpha virt. eigenvalues --   -0.13499  -0.09990  -0.06511  -0.05136  -0.04424
 Alpha virt. eigenvalues --   -0.04220  -0.03464  -0.02810  -0.02588  -0.02440
 Alpha virt. eigenvalues --   -0.01854  -0.01331  -0.00986  -0.00688  -0.00442

 Mulliken charges:
               1
     1  C    0.937964
     2  C    0.799000
     3  N   -0.445528
     4  C    1.194497
     5  C    0.671148
     6  C    1.232754
     7  C    0.657247
     8  N   -0.072372
     9  C    0.759109
    10  C    0.169424
    11  C    1.155007
    12  C    0.840479
    13  H   -0.807132
    14  H   -0.441914
    15  H   -0.378943
    16  H   -0.329981
    17  H   -0.282060
    18  H   -0.378877
    19  H   -0.529215
    20  H   -0.960779
    21  H   -0.645914
    22  H    0.097687
    23  H   -0.838562
    24  H   -0.340602
    25  H   -0.166175
    26  H   -0.236967
    27  H   -0.582733
    28  O   -0.473427
    29  H    0.134928
    30  H    0.291812
    31  O   -0.378494
    32  H    0.235778
    33  H    0.134358
    34  O   -0.317877
    35  H    0.150034
    36  H    0.146327
 Sum of Mulliken charges =   1.00000

 Dipole moment (field-independent basis, Debye):
    X=             -7.8705    Y=             -0.7659    Z=              0.0261  Tot=              7.9077
 Quadrupole moment (field-independent basis, Debye-Ang):
   XX=              6.1532   YY=            -60.9597   ZZ=            -82.1242
   XY=            -13.4969   XZ=             -3.2580   YZ=              2.8942

  Exact polarizability: 179.834  16.571 156.217  -2.542   7.616 129.781
 Approx polarizability: 178.303   6.882 171.254  -8.453  14.411 147.512

                      1                      2                      3
                      A                      A                      A
 Frequencies --      9.9344                12.3383                22.1707
 Red. masses --      4.3475                 4.7730                 3.6735
 Frc consts  --      0.0003                 0.0004                 0.0011
 IR Inten    --      0.2165                 0.5293                 0.1268

                      4                      5                      6
                      A                      A                      A
 Frequencies --     30.3525                35.5479                39.2093
 Red. masses --      3.5948                 4.9744                 2.8737
 Frc consts  --      0.0020                 0.0037                 0.0026
 IR Inten    --      1.4082                 2.7303                 1.0158

                      7                      8                      9
                      A                      A                      A
 Frequencies --     49.5652                94.6301                97.5964
 Red. masses --      6.4151                 1.0473                 3.6064
 Frc consts  --      0.0093                 0.0055                 0.0202
 IR Inten    --      2.4654                29.3767                 0.9547

                     10                     11                     12
                      A                      A                      A
 Frequencies --    111.8053               160.3556               173.4241
 Red. masses --      4.1475                 1.9132                 1.1671
 Frc consts  --      0.0305                 0.0290                 0.0207
 IR Inten    --      2.4212                 3.9785                25.8178

                     13                     14                     15
                      A                      A                      A
 Frequencies --    184.5481               189.3396               196.1109
 Red. masses --      3.6876                 3.0438                 1.2077
 Frc consts  --      0.0740                 0.0643                 0.0274
 IR Inten    --     49.5960                 5.3166               281.3179

                     16                     17                     18
                      A                      A                      A
 Frequencies --    234.2217               238.3903               244.9020
 Red. masses --      1.2980                 3.0142                 1.1498
 Frc consts  --      0.0420                 0.1009                 0.0406
 IR Inten    --     47.0376                 6.1332                 5.1372

                     19                     20                     21
                      A                      A                      A
 Frequencies --    260.3705               267.0723               306.3780
 Red. masses --      1.0494                 2.8999                 4.2667
 Frc consts  --      0.0419                 0.1219                 0.2360
 IR Inten    --     66.0657                 5.4060                 8.2947

                     22                     23                     24
                      A                      A                      A
 Frequencies --    347.7362               359.9612               414.4570
 Red. masses --      4.9742                 2.8099                 2.9260
 Frc consts  --      0.3544                 0.2145                 0.2961
 IR Inten    --     14.7070                 8.6733                 1.8346

                     25                     26                     27
                      A                      A                      A
 Frequencies --    417.1398               440.6555               538.6581
 Red. masses --      3.1129                 1.0476                 1.9837
 Frc consts  --      0.3191                 0.1198                 0.3391
 IR Inten    --      1.8428                22.9397                 5.5950

                     28                     29                     30
                      A                      A                      A
 Frequencies --    568.0758               595.8817               636.4288
 Red. masses --      1.6406                 2.8053                 5.4437
 Frc consts  --      0.3119                 0.5869                 1.2991
 IR Inten    --     18.7942                 6.3342                30.7320

                     31                     32                     33
                      A                      A                      A
 Frequencies --    646.5011               666.7854               710.6786
 Red. masses --      3.1407                 4.3147                 1.9844
 Frc consts  --      0.7734                 1.1302                 0.5905
 IR Inten    --      2.4569                 2.0135                35.3806

                     34                     35                     36
                      A                      A                      A
 Frequencies --    752.5182               774.7241               839.3509
 Red. masses --      1.0497                 1.7907                 1.6334
 Frc consts  --      0.3502                 0.6332                 0.6780
 IR Inten    --    120.9958                 2.9463                29.1588

                     37                     38                     39
                      A                      A                      A
 Frequencies --    854.4987               905.0749               922.6503
 Red. masses --      1.9657                 1.0450                 1.6972
 Frc consts  --      0.8457                 0.5043                 0.8512
 IR Inten    --     10.8028                82.5804                11.0812

                     40                     41                     42
                      A                      A                      A
 Frequencies --    935.8361               947.0412               969.4386
 Red. masses --      3.4109                 1.5595                 2.1552
 Frc consts  --      1.7600                 0.8241                 1.1934
 IR Inten    --      4.0969                 7.7635                 2.2786

                     43                     44                     45
                      A                      A                      A
 Frequencies --    985.0167              1001.8724              1044.0610
 Red. masses --      1.4559                 1.8650                 1.4623
 Frc consts  --      0.8323                 1.1029                 0.9392
 IR Inten    --      2.3704                 0.9321                 1.3344

                     46                     47                     48
                      A                      A                      A
 Frequencies --   1044.6842              1061.6367              1080.9309
 Red. masses --      3.5231                 2.3216                 1.6834
 Frc consts  --      2.2654                 1.5416                 1.1588
 IR Inten    --      2.1718                 2.0905                16.7412

                     49                     50                     51
                      A                      A                      A
 Frequencies --   1085.5351              1111.6899              1136.5763
 Red. masses --      2.1186                 2.1801                 1.4397
 Frc consts  --      1.4709                 1.5874                 1.0958
 IR Inten    --      2.5482                10.5793                 9.4864

                     52                     53                     54
                      A                      A                      A
 Frequencies --   1138.2686              1198.0940              1206.5735
 Red. masses --      1.3044                 1.4865                 1.2711
 Frc consts  --      0.9957                 1.2572                 1.0903
 IR Inten    --      1.8149                10.1879                 6.3551

                     55                     56                     57
                      A                      A                      A
 Frequencies --   1220.1242              1236.7092              1243.6395
 Red. masses --      1.5997                 1.0895                 1.6060
 Frc consts  --      1.4031                 0.9818                 1.4634
 IR Inten    --      8.6196                29.2669                12.7828

                     58                     59                     60
                      A                      A                      A
 Frequencies --   1257.3361              1272.0495              1292.1537
 Red. masses --      1.6442                 1.8508                 1.7838
 Frc consts  --      1.5315                 1.7645                 1.7548
 IR Inten    --      7.8999                19.9138                 7.9059

                     61                     62                     63
                      A                      A                      A
 Frequencies --   1304.5041              1322.3173              1330.0328
 Red. masses --      1.4787                 1.5757                 1.3591
 Frc consts  --      1.4826                 1.6233                 1.4165
 IR Inten    --     12.0549                14.5688                 4.8003

                     64                     65                     66
                      A                      A                      A
 Frequencies --   1348.1243              1354.8754              1378.8528
 Red. masses --      1.4925                 1.9730                 1.9079
 Frc consts  --      1.5981                 2.1339                 2.1372
 IR Inten    --      4.7915                 4.1567                25.7406

                     67                     68                     69
                      A                      A                      A
 Frequencies --   1390.8442              1440.3573              1453.4872
 Red. masses --      1.6378                 1.6560                 1.3511
 Frc consts  --      1.8666                 2.0242                 1.6817
 IR Inten    --     11.5771                12.4901                 3.4170

                     70                     71                     72
                      A                      A                      A
 Frequencies --   1478.0084              1483.7259              1489.0165
 Red. masses --      1.0455                 1.0729                 1.0795
 Frc consts  --      1.3456                 1.3916                 1.4101
 IR Inten    --     12.3153                 6.4029                 3.4719

                     73                     74                     75
                      A                      A                      A
 Frequencies --   1503.3025              1515.2498              1521.7732
 Red. masses --      1.0884                 1.9489                 1.2022
 Frc consts  --      1.4493                 2.6364                 1.6403
 IR Inten    --     10.8717                31.1315                 6.6924

                     76                     77                     78
                      A                      A                      A
 Frequencies --   1619.5969              1626.2804              1643.3789
 Red. masses --      2.2073                 1.0855                 1.0858
 Frc consts  --      3.4113                 1.6915                 1.7278
 IR Inten    --     38.1353               127.9505                10.6146

                     79                     80                     81
                      A                      A                      A
 Frequencies --   1675.6112              1699.9098              1713.5133
 Red. masses --      1.0903                 4.3823                 3.0002
 Frc consts  --      1.8037                 7.4612                 5.1901
 IR Inten    --      5.5609                 6.3199                 7.1012

                     82                     83                     84
                      A                      A                      A
 Frequencies --   2916.4552              2929.4058              2957.1296
 Red. masses --      1.1015                 1.0827                 1.0712
 Frc consts  --      5.5199                 5.4740                 5.5192
 IR Inten    --   2871.7031               160.2395                41.9072

                     85                     86                     87
                      A                      A                      A
 Frequencies --   2963.4598              3085.4813              3092.9340
 Red. masses --      1.0573                 1.0624                 1.0801
 Frc consts  --      5.4707                 5.9591                 6.0879
 IR Inten    --    102.5473                18.9186                28.4505

                     88                     89                     90
                      A                      A                      A
 Frequencies --   3102.3733              3123.8117              3136.2798
 Red. masses --      1.0644                 1.0901                 1.1052
 Frc consts  --      6.0360                 6.2673                 6.4048
 IR Inten    --     20.3753                22.6441                 3.6683

                     91                     92                     93
                      A                      A                      A
 Frequencies --   3146.6624              3160.6703              3220.6220
 Red. masses --      1.1020                 1.1063                 1.0920
 Frc consts  --      6.4290                 6.5116                 6.6737
 IR Inten    --     16.9311                23.2055                 1.1327

                     94                     95                     96
                      A                      A                      A
 Frequencies --   3237.4555              3243.1232              3259.4275
 Red. masses --      1.0954                 1.0934                 1.0999
 Frc consts  --      6.7643                 6.7759                 6.8849
 IR Inten    --      1.1609                 2.3746                 1.9404

                     97                     98                     99
                      A                      A                      A
 Frequencies --   3376.5311              3613.6263              3877.0660
 Red. masses --      1.0647                 1.0605                 1.0452
 Frc consts  --      7.1516                 8.1592                 9.2564
 IR Inten    --   1352.4631               614.0281                26.8357

                    100                    101                    102
                      A                      A                      A
 Frequencies --   3952.0858              3953.2616              3983.1386
 Red. masses --      1.0686                 1.0677                 1.0830
 Frc consts  --      9.8340                 9.8317                10.1232
 IR Inten    --    108.9569                90.4214               114.5910

 - Thermochemistry -
 -------------------
 Temperature   298.150 Kelvin.  Pressure   1.00000 Atm.
 Atom     1 has atomic number  6 and mass  12.00000

 Molecular mass:   217.15522 amu.
 Principal axes and moments of inertia in atomic units:
                           1         2         3
     Eigenvalues --  2340.207309943.43598**********
           X            1.00000   0.00011   0.00136
           Y           -0.00010   0.99998  -0.00574
           Z           -0.00136   0.00574   0.99998
 This molecule is an asymmetric top.
 Rotational symmetry number  1.
 Warning -- assumption of classical behavior for rotation
           may cause significant error
 Rotational temperatures (Kelvin)      0.03701     0.00871     0.00775
 Rotational constants (GHZ):           0.77119     0.18150     0.16155
 Zero-point vibrational energy     828073.5 (Joules/Mol)
                                  197.91431 (Kcal/Mol)
 Warning -- explicit consideration of  29 degrees of freedom as
           vibrations may cause significant error
 Vibrational temperatures:     14.29    17.75    31.90    43.67    51.15
          (Kelvin)             56.41    71.31   136.15   140.42   160.86
                              230.72   249.52   265.52   272.42   282.16
                              336.99   342.99   352.36   374.62   384.26
                              440.81   500.31   517.90   596.31   600.17
                              634.01   775.01   817.33   857.34   915.68
                              930.17   959.36  1022.51  1082.71  1114.66
                             1207.64  1229.43  1302.20  1327.49  1346.46
                             1362.58  1394.81  1417.22  1441.47  1502.17
                             1503.07  1527.46  1555.22  1561.84  1599.47
                             1635.28  1637.71  1723.79  1735.99  1755.49
                             1779.35  1789.32  1809.03  1830.20  1859.12
                             1876.89  1902.52  1913.62  1939.65  1949.36
                             1983.86  2001.11  2072.35  2091.24  2126.52
                             2134.75  2142.36  2162.92  2180.11  2189.49
                             2330.24  2339.85  2364.46  2410.83  2445.79
                             2465.36  4196.13  4214.76  4254.65  4263.76
                             4439.32  4450.04  4463.62  4494.47  4512.41
                             4527.35  4547.50  4633.76  4657.98  4666.13
                             4689.59  4858.08  5199.20  5578.23  5686.17
                             5687.86  5730.85

 Zero-point correction=                           0.315397 (Hartree/Particle)
 Thermal correction to Energy=                    0.336101
 Thermal correction to Enthalpy=                  0.337045
 Thermal correction to Gibbs Free Energy=         0.260051
 Sum of electronic and zero-point Energies=           -728.272052
 Sum of electronic and thermal Energies=              -728.251347
 Sum of electronic and thermal Enthalpies=            -728.250403
 Sum of electronic and thermal Free Energies=         -728.327397

                     E (Thermal)             CV                S
                      KCal/Mol        Cal/Mol-Kelvin    Cal/Mol-Kelvin
 Total                  210.907             70.956            162.048
 Electronic               0.000              0.000              0.000
 Translational            0.889              2.981             42.029
 Rotational               0.889              2.981             33.918
 Vibrational            209.129             64.994             86.100
 Vibration     1          0.593              1.987              8.024
 Vibration     2          0.593              1.987              7.594
 Vibration     3          0.593              1.985              6.430
 Vibration     4          0.594              1.984              5.806
 Vibration     5          0.594              1.982              5.493
 Vibration     6          0.594              1.981              5.299
 Vibration     7          0.595              1.978              4.835
 Vibration     8          0.603              1.953              3.562
 Vibration     9          0.603              1.951              3.502
 Vibration    10          0.607              1.940              3.237
 Vibration    11          0.622              1.891              2.546
 Vibration    12          0.627              1.875              2.398
 Vibration    13          0.631              1.861              2.282
 Vibration    14          0.633              1.855              2.234
 Vibration    15          0.636              1.845              2.169
 Vibration    16          0.654              1.789              1.846
 Vibration    17          0.656              1.782              1.815
 Vibration    18          0.660              1.771              1.767
 Vibration    19          0.668              1.745              1.659
 Vibration    20          0.672              1.734              1.615
 Vibration    21          0.697              1.662              1.382
 Vibration    22          0.725              1.580              1.176
 Vibration    23          0.734              1.555              1.122
 Vibration    24          0.778              1.439              0.911
 Vibration    25          0.780              1.433              0.902
 Vibration    26          0.801              1.381              0.825
 Vibration    27          0.894              1.165              0.568
 Vibration    28          0.924              1.100              0.508
 Vibration    29          0.954              1.041              0.457

                           ! Non-Optimized Parameters !
 Normal termination of Gaussian 16 at Thu Jan 26 16:24:48 2023.
