 Gaussian 16, Revision A.03,
 Gaussian 16:  ES64L-G16RevA.03 25-Dec-2016

 -----------------------------
 # wB97XD/aug-cc-pVDZ opt freq
 -----------------------------

 ----
 blah
 ----
 Symbolic Z-matrix:
 Charge =  1 Multiplicity = 1

 SCF Done:  E(RwB97XD) =  -728.583583114     A.U. after   14 cycles
 SCF Done:  E(RwB97XD) =  -728.589876594     A.U. after   13 cycles
 SCF Done:  E(RwB97XD) =  -728.594555550     A.U. after   14 cycles
 SCF Done:  E(RwB97XD) =  -728.596314851     A.U. after   12 cycles
 SCF Done:  E(RwB97XD) =  -728.597387079     A.U. after   15 cycles
 SCF Done:  E(RwB97XD) =  -728.598442143     A.U. after   12 cycles
 SCF Done:  E(RwB97XD) =  -728.599379119     A.U. after   12 cycles
 SCF Done:  E(RwB97XD) =  -728.600015212     A.U. after   13 cycles
 SCF Done:  E(RwB97XD) =  -728.600287145     A.U. after   12 cycles
 SCF Done:  E(RwB97XD) =  -728.600531915     A.U. after   13 cycles
 SCF Done:  E(RwB97XD) =  -728.601032297     A.U. after   10 cycles
 SCF Done:  E(RwB97XD) =  -728.601033293     A.U. after    9 cycles
 SCF Done:  E(RwB97XD) =  -728.601033921     A.U. after    9 cycles
 SCF Done:  E(RwB97XD) =  -728.601034144     A.U. after    9 cycles
 SCF Done:  E(RwB97XD) =  -728.601034307     A.U. after    8 cycles
 SCF Done:  E(RwB97XD) =  -728.601034447     A.U. after    8 cycles
 SCF Done:  E(RwB97XD) =  -728.601034569     A.U. after    8 cycles
 SCF Done:  E(RwB97XD) =  -728.601034694     A.U. after    9 cycles
 SCF Done:  E(RwB97XD) =  -728.601034751     A.U. after    8 cycles
 Optimization completed.
    -- Stationary point found.
 Normal termination of Gaussian 16 at Fri Jan 27 21:19:12 2023.

 ----------------------------------------------------------------------
 #N Geom=AllCheck Guess=TCheck SCRF=Check GenChk RwB97XD/Aug-CC-pVDZ Fr
 eq
 ----------------------------------------------------------------------

 Structure from the checkpoint file:  "/gscratch/scrubbed/gds001/Gau-29345.chk"
 ----
 blah
 ----
 Charge =  1 Multiplicity = 1

                         Standard orientation:
 ---------------------------------------------------------------------
 Center     Atomic      Atomic             Coordinates (Angstroms)
 Number     Number       Type             X           Y           Z
 ---------------------------------------------------------------------
      1          6           0        1.016236   -0.445502   -0.526106
      2          6           0        0.035726   -1.329872   -0.070671
      3          6           0        0.458768   -2.555605    0.446377
      4          6           0        1.817225   -2.849164    0.480568
      5          6           0        2.713317   -1.893685    0.009022
      6          7           0        2.322278   -0.713574   -0.481058
      7          6           0       -1.430270   -0.993513   -0.140218
      8          6           0       -2.018305   -0.685040   -1.519329
      9          6           0       -3.311483    0.111459   -1.227340
     10          6           0       -3.225359    0.498594    0.259851
     11          7           0       -1.800067    0.245952    0.635463
     12          8           0       -0.627662    2.485151   -0.297692
     13          1           0       -3.848945   -0.142407    0.893757
     14          1           0       -4.208190   -0.489176   -1.407729
     15          1           0       -3.377900    0.999307   -1.863347
     16          1           0       -1.306430   -0.083147   -2.096252
     17          1           0       -2.198476   -1.608744   -2.076669
     18          1           0       -3.461188    1.545295    0.473569
     19          1           0       -2.002470   -1.804183    0.333396
     20          1           0        0.746570    0.530183   -0.935588
     21          1           0        3.787718   -2.077831    0.027409
     22          1           0        2.180166   -3.797839    0.870810
     23          1           0       -0.268147   -3.280455    0.815777
     24          6           0       -1.545946    0.179787    2.089356
     25          1           0       -1.265835    1.064699    0.251311
     26          1           0        0.242283    2.759624    0.095581
     27          1           0       -0.958251    3.222507   -0.813831
     28          1           0        3.352505    0.796828   -0.723160
     29          8           0        3.642573    1.729551   -0.636632
     30          1           0        4.068696    1.978543   -1.459202
     31          8           0        1.705121    2.881440    0.785820
     32          1           0        2.474262    2.564075    0.257812
     33          1           0        2.020564    3.599617    1.337774
     34          1           0       -1.876790    1.117086    2.546091
     35          1           0       -0.472925    0.048117    2.256264
     36          1           0       -2.102400   -0.662636    2.514346
 ---------------------------------------------------------------------

 SCF Done:  E(RwB97XD) =  -728.601034751     A.U. after    1 cycles

 The electronic state is 1-A.
 Alpha  occ. eigenvalues --  -19.39882 -19.37772 -19.36837 -14.69026 -14.58591
 Alpha  occ. eigenvalues --  -10.50034 -10.48733 -10.48196 -10.46806 -10.46326
 Alpha  occ. eigenvalues --  -10.45454 -10.45241 -10.44260 -10.44155 -10.43589
 Alpha  occ. eigenvalues --   -1.25984  -1.24204  -1.22197  -1.20669  -1.18314
 Alpha  occ. eigenvalues --   -1.06745  -1.04665  -1.01478  -0.97101  -0.94619
 Alpha  occ. eigenvalues --   -0.89417  -0.85983  -0.85211  -0.83641  -0.78139
 Alpha  occ. eigenvalues --   -0.75934  -0.75315  -0.73993  -0.73362  -0.72411
 Alpha  occ. eigenvalues --   -0.71757  -0.69934  -0.69406  -0.66714  -0.65880
 Alpha  occ. eigenvalues --   -0.65420  -0.63348  -0.63096  -0.62538  -0.62192
 Alpha  occ. eigenvalues --   -0.61364  -0.60554  -0.59207  -0.58211  -0.58177
 Alpha  occ. eigenvalues --   -0.56987  -0.56138  -0.55549  -0.53728  -0.51543
 Alpha  occ. eigenvalues --   -0.50333  -0.49992  -0.47917  -0.46920
 Alpha virt. eigenvalues --   -0.09738  -0.08857  -0.06994  -0.06047  -0.05116
 Alpha virt. eigenvalues --   -0.04864  -0.03555  -0.03351  -0.03082  -0.02903
 Alpha virt. eigenvalues --   -0.02627  -0.01852  -0.01251  -0.00969  -0.00603

 Mulliken charges:
               1
     1  C    0.693601
     2  C    1.071245
     3  C    1.205238
     4  C    0.527079
     5  C    0.242298
     6  N   -0.485349
     7  C    1.213886
     8  C    0.932655
     9  C    0.750710
    10  C    1.236161
    11  N   -0.930152
    12  O   -0.477758
    13  H   -0.501065
    14  H   -0.227255
    15  H   -0.236717
    16  H   -0.281010
    17  H   -0.501966
    18  H   -0.487357
    19  H   -0.942081
    20  H   -1.108134
    21  H   -0.584505
    22  H   -0.592033
    23  H   -0.911829
    24  C    0.981670
    25  H    0.245729
    26  H    0.293531
    27  H    0.185220
    28  H    0.239941
    29  O   -0.390695
    30  H    0.163091
    31  O   -0.421598
    32  H    0.253864
    33  H    0.153120
    34  H   -0.125646
    35  H   -0.043401
    36  H   -0.140488
 Sum of Mulliken charges =   1.00000

 Dipole moment (field-independent basis, Debye):
    X=             -4.5112    Y=              0.0583    Z=              0.8244  Tot=              4.5862
 Quadrupole moment (field-independent basis, Debye-Ang):
   XX=            -55.2959   YY=            -60.5090   ZZ=            -79.0660
   XY=             -1.6401   XZ=             -3.9391   YZ=             -3.8522

  Exact polarizability: 176.819  -9.381 152.831   0.799  -8.422 123.267
 Approx polarizability: 180.630  -3.617 170.079  -1.422 -13.608 141.929

                      1                      2                      3
                      A                      A                      A
 Frequencies --     25.2053                33.3957                49.8799
 Red. masses --      4.2550                 4.8555                 5.6032
 Frc consts  --      0.0016                 0.0032                 0.0082
 IR Inten    --      1.9510                 2.5259                 3.6212

                      4                      5                      6
                      A                      A                      A
 Frequencies --     51.8789                70.2149                75.3035
 Red. masses --      4.2610                 4.4824                 2.3019
 Frc consts  --      0.0068                 0.0130                 0.0077
 IR Inten    --      3.9875                 1.1838                 0.2987

                      7                      8                      9
                      A                      A                      A
 Frequencies --     85.2199                99.4253               136.9907
 Red. masses --      5.6686                 3.7078                 2.2734
 Frc consts  --      0.0243                 0.0216                 0.0251
 IR Inten    --     10.5170                 2.2200                 1.0023

                     10                     11                     12
                      A                      A                      A
 Frequencies --    170.9689               179.4297               200.7882
 Red. masses --      1.0847                 4.8566                 4.1008
 Frc consts  --      0.0187                 0.0921                 0.0974
 IR Inten    --     92.0202                 4.7653                21.2399

                     13                     14                     15
                      A                      A                      A
 Frequencies --    213.6041               221.8624               228.0723
 Red. masses --      2.1652                 1.3001                 1.1420
 Frc consts  --      0.0582                 0.0377                 0.0350
 IR Inten    --     41.5929                78.0593                 4.7550

                     16                     17                     18
                      A                      A                      A
 Frequencies --    243.4707               257.3374               272.0091
 Red. masses --      1.4003                 2.7840                 2.8581
 Frc consts  --      0.0489                 0.1086                 0.1246
 IR Inten    --     64.9584                10.1839                39.9218

                     19                     20                     21
                      A                      A                      A
 Frequencies --    316.8029               356.2124               392.5644
 Red. masses --      4.0466                 5.0859                 2.9984
 Frc consts  --      0.2393                 0.3802                 0.2722
 IR Inten    --      0.8170                16.5721                 0.0746

                     22                     23                     24
                      A                      A                      A
 Frequencies --    410.7162               433.8612               455.5778
 Red. masses --      2.4099                 2.8047                 1.2107
 Frc consts  --      0.2395                 0.3111                 0.1480
 IR Inten    --     12.4730                16.9373                39.3009

                     25                     26                     27
                      A                      A                      A
 Frequencies --    512.3481               535.3903               564.5377
 Red. masses --      1.1468                 2.9928                 3.0917
 Frc consts  --      0.1774                 0.5054                 0.5805
 IR Inten    --     32.1411                 9.1614                 6.3599

                     28                     29                     30
                      A                      A                      A
 Frequencies --    585.9607               637.0339               649.6823
 Red. masses --      1.1124                 3.4199                 5.7878
 Frc consts  --      0.2250                 0.8177                 1.4393
 IR Inten    --     55.5447                 6.1936                 7.5484

                     31                     32                     33
                      A                      A                      A
 Frequencies --    679.5821               736.2039               768.1523
 Red. masses --      5.6303                 1.9149                 1.0865
 Frc consts  --      1.5320                 0.6115                 0.3777
 IR Inten    --      2.1877                40.8171               104.7812

                     34                     35                     36
                      A                      A                      A
 Frequencies --    793.1636               814.7949               838.5215
 Red. masses --      1.2198                 2.1756                 1.7568
 Frc consts  --      0.4521                 0.8510                 0.7278
 IR Inten    --      2.9271                 9.6518                15.9403

                     37                     38                     39
                      A                      A                      A
 Frequencies --    857.3814               918.9908               930.9705
 Red. masses --      1.0707                 2.9188                 2.5195
 Frc consts  --      0.4637                 1.4524                 1.2866
 IR Inten    --    104.9961                11.4105                11.5551

                     40                     41                     42
                      A                      A                      A
 Frequencies --    947.3150               949.9074               979.4135
 Red. masses --      1.4473                 1.3610                 1.3108
 Frc consts  --      0.7652                 0.7235                 0.7409
 IR Inten    --     33.8879                36.2622                12.1044

                     43                     44                     45
                      A                      A                      A
 Frequencies --    987.5432              1001.3855              1030.9606
 Red. masses --      1.6818                 1.6232                 1.4307
 Frc consts  --      0.9664                 0.9590                 0.8960
 IR Inten    --      5.2591                 3.9220                 0.2021

                     46                     47                     48
                      A                      A                      A
 Frequencies --   1037.3214              1051.2009              1059.4614
 Red. masses --      1.8408                 4.8890                 2.7275
 Frc consts  --      1.1670                 3.1831                 1.8038
 IR Inten    --     13.8903                10.9700                 6.9128

                     49                     50                     51
                      A                      A                      A
 Frequencies --   1089.9750              1107.7520              1130.5724
 Red. masses --      2.2507                 2.2332                 1.3936
 Frc consts  --      1.5754                 1.6146                 1.0495
 IR Inten    --      2.4967                 3.5596                 4.1686

                     52                     53                     54
                      A                      A                      A
 Frequencies --   1153.7909              1159.2793              1215.6936
 Red. masses --      1.8279                 1.8571                 1.7406
 Frc consts  --      1.4337                 1.4705                 1.5157
 IR Inten    --      8.7536                14.9895                 0.9720

                     55                     56                     57
                      A                      A                      A
 Frequencies --   1223.5647              1232.1332              1244.3599
 Red. masses --      1.4279                 1.6170                 1.3325
 Frc consts  --      1.2595                 1.4464                 1.2157
 IR Inten    --      9.6605                 4.7310                10.0970

                     58                     59                     60
                      A                      A                      A
 Frequencies --   1269.5814              1285.4292              1299.3149
 Red. masses --      1.4751                 1.2916                 1.6109
 Frc consts  --      1.4008                 1.2574                 1.6024
 IR Inten    --      0.9589                 4.2461                 0.7816

                     61                     62                     63
                      A                      A                      A
 Frequencies --   1316.0434              1334.9448              1369.1870
 Red. masses --      2.9728                 1.4158                 1.2767
 Frc consts  --      3.0336                 1.4865                 1.4102
 IR Inten    --      0.8470                 1.4471                 1.0839

                     64                     65                     66
                      A                      A                      A
 Frequencies --   1376.5504              1380.2915              1411.6648
 Red. masses --      1.3977                 1.3612                 1.6455
 Frc consts  --      1.5605                 1.5279                 1.9320
 IR Inten    --      3.5921                 1.1743                 1.5953

                     67                     68                     69
                      A                      A                      A
 Frequencies --   1453.7439              1480.5552              1482.9052
 Red. masses --      1.1835                 1.0527                 1.0618
 Frc consts  --      1.4736                 1.3595                 1.3756
 IR Inten    --      2.6019                 9.4857                 1.6318

                     70                     71                     72
                      A                      A                      A
 Frequencies --   1483.5089              1489.2315              1500.4544
 Red. masses --      2.1465                 1.0805                 1.1052
 Frc consts  --      2.7833                 1.4119                 1.4660
 IR Inten    --     32.5553                 2.8895                26.4434

                     73                     74                     75
                      A                      A                      A
 Frequencies --   1515.5161              1522.3085              1538.1560
 Red. masses --      1.2376                 1.1323                 1.9788
 Frc consts  --      1.6747                 1.5460                 2.7584
 IR Inten    --     40.4471                16.4469                 7.3257

                     76                     77                     78
                      A                      A                      A
 Frequencies --   1573.0648              1625.9586              1650.8606
 Red. masses --      1.1493                 1.0851                 1.1159
 Frc consts  --      1.6756                 1.6902                 1.7918
 IR Inten    --     24.4222                39.5315                90.4434

                     79                     80                     81
                      A                      A                      A
 Frequencies --   1663.0849              1685.2565              1688.8760
 Red. masses --      4.7469                 5.6186                 1.0841
 Frc consts  --      7.7356                 9.4018                 1.8219
 IR Inten    --      4.0524                16.4537                28.4919

                     82                     83                     84
                      A                      A                      A
 Frequencies --   2998.7081              3078.3287              3082.1324
 Red. masses --      1.0879                 1.0706                 1.0475
 Frc consts  --      5.7638                 5.9774                 5.8630
 IR Inten    --   1041.7552                 0.3366                11.9847

                     85                     86                     87
                      A                      A                      A
 Frequencies --   3101.8945              3102.8811              3117.1342
 Red. masses --      1.0628                 1.0649                 1.0635
 Frc consts  --      6.0250                 6.0407                 6.0882
 IR Inten    --     11.8980                 9.1467                 9.1015

                     88                     89                     90
                      A                      A                      A
 Frequencies --   3159.4365              3170.3335              3180.0854
 Red. masses --      1.1059                 1.1057                 1.1070
 Frc consts  --      6.5040                 6.5479                 6.5958
 IR Inten    --      1.3360                 2.5305                 7.8297

                     91                     92                     93
                      A                      A                      A
 Frequencies --   3184.2638              3188.0231              3192.8073
 Red. masses --      1.1068                 1.0928                 1.1072
 Frc consts  --      6.6121                 6.5437                 6.6503
 IR Inten    --      0.2387                 9.2957                 0.6684

                     94                     95                     96
                      A                      A                      A
 Frequencies --   3200.8484              3212.2449              3239.4596
 Red. masses --      1.0916                 1.0925                 1.0985
 Frc consts  --      6.5892                 6.6420                 6.7918
 IR Inten    --      3.0482                 4.0820                 1.5698

                     97                     98                     99
                      A                      A                      A
 Frequencies --   3266.8005              3422.5960              3513.7117
 Red. masses --      1.0663                 1.0645                 1.0625
 Frc consts  --      6.7047                 7.3471                 7.7290
 IR Inten    --    998.9034               847.6321               993.6116

                    100                    101                    102
                      A                      A                      A
 Frequencies --   3952.4781              3953.1527              3954.3963
 Red. masses --      1.0670                 1.0683                 1.0677
 Frc consts  --      9.8210                 9.8362                 9.8369
 IR Inten    --     92.9323               111.4209               132.1986

 - Thermochemistry -
 -------------------
 Temperature   298.150 Kelvin.  Pressure   1.00000 Atm.
 Atom     1 has atomic number  6 and mass  12.00000

 Molecular mass:   217.15522 amu.
 Principal axes and moments of inertia in atomic units:
                           1         2         3
     Eigenvalues --  2895.665754280.183185922.76564
           X            0.99988   0.01515  -0.00104
           Y           -0.01515   0.99986  -0.00636
           Z            0.00095   0.00638   0.99998
 This molecule is an asymmetric top.
 Rotational symmetry number  1.
 Warning -- assumption of classical behavior for rotation
           may cause significant error
 Rotational temperatures (Kelvin)      0.02991     0.02024     0.01462
 Rotational constants (GHZ):           0.62326     0.42165     0.30471
 Zero-point vibrational energy     837824.6 (Joules/Mol)
                                  200.24489 (Kcal/Mol)
 Warning -- explicit consideration of  28 degrees of freedom as
           vibrations may cause significant error
 Vibrational temperatures:     36.26    48.05    71.77    74.64   101.02
          (Kelvin)            108.34   122.61   143.05   197.10   245.99
                              258.16   288.89   307.33   319.21   328.15
                              350.30   370.25   391.36   455.81   512.51
                              564.81   590.93   624.23   655.47   737.15
                              770.31   812.24   843.07   916.55   934.75
                              977.77  1059.23  1105.20  1141.19  1172.31
                             1206.45  1233.58  1322.22  1339.46  1362.97
                             1366.70  1409.16  1420.85  1440.77  1483.32
                             1492.47  1512.44  1524.33  1568.23  1593.81
                             1626.64  1660.05  1667.94  1749.11  1760.44
                             1772.76  1790.36  1826.64  1849.45  1869.42
                             1893.49  1920.69  1969.95  1980.55  1985.93
                             2031.07  2091.61  2130.19  2133.57  2134.44
                             2142.67  2158.82  2180.49  2190.26  2213.06
                             2263.29  2339.39  2375.22  2392.81  2424.71
                             2429.92  4314.47  4429.03  4434.50  4462.93
                             4464.35  4484.86  4545.72  4561.40  4575.43
                             4581.45  4586.85  4593.74  4605.31  4621.70
                             4660.86  4700.20  4924.35  5055.45  5686.73
                             5687.71  5689.49

 Zero-point correction=                           0.319111 (Hartree/Particle)
 Thermal correction to Energy=                    0.338170
 Thermal correction to Enthalpy=                  0.339114
 Thermal correction to Gibbs Free Energy=         0.270468
 Sum of electronic and zero-point Energies=           -728.281924
 Sum of electronic and thermal Energies=              -728.262865
 Sum of electronic and thermal Enthalpies=            -728.261921
 Sum of electronic and thermal Free Energies=         -728.330567

                     E (Thermal)             CV                S
                      KCal/Mol        Cal/Mol-Kelvin    Cal/Mol-Kelvin
 Total                  212.205             68.480            144.479
 Electronic               0.000              0.000              0.000
 Translational            0.889              2.981             42.029
 Rotational               0.889              2.981             32.662
 Vibrational            210.427             62.518             69.787
 Vibration     1          0.593              1.985              6.175
 Vibration     2          0.594              1.983              5.617
 Vibration     3          0.595              1.978              4.822
 Vibration     4          0.596              1.977              4.744
 Vibration     5          0.598              1.968              4.147
 Vibration     6          0.599              1.965              4.010
 Vibration     7          0.601              1.959              3.767
 Vibration     8          0.604              1.950              3.466
 Vibration     9          0.614              1.916              2.845
 Vibration    10          0.626              1.878              2.425
 Vibration    11          0.629              1.868              2.334
 Vibration    12          0.638              1.839              2.126
 Vibration    13          0.644              1.820              2.013
 Vibration    14          0.648              1.808              1.944
 Vibration    15          0.651              1.798              1.894
 Vibration    16          0.659              1.774              1.777
 Vibration    17          0.667              1.750              1.680
 Vibration    18          0.675              1.725              1.583
 Vibration    19          0.704              1.642              1.327
 Vibration    20          0.732              1.562              1.139
 Vibration    21          0.760              1.486              0.990
 Vibration    22          0.775              1.447              0.924
 Vibration    23          0.795              1.396              0.846
 Vibration    24          0.814              1.349              0.779
 Vibration    25          0.867              1.223              0.628
 Vibration    26          0.890              1.172              0.575
 Vibration    27          0.920              1.108              0.515
 Vibration    28          0.943              1.062              0.474

                           ! Non-Optimized Parameters !
 Normal termination of Gaussian 16 at Fri Jan 27 22:11:14 2023.
