 Gaussian 16, Revision A.03,
 Gaussian 16:  ES64L-G16RevA.03 25-Dec-2016

 ---------------------------------------------
 # wB97XD/aug-cc-pVDZ opt freq temperature=180
 ---------------------------------------------

 --------
 Nicotine
 --------
 Symbolic Z-matrix:
 Charge =  1 Multiplicity = 1

 SCF Done:  E(RwB97XD) =  -728.588185456     A.U. after   14 cycles
 Optimization completed.
    -- Stationary point found.
 Normal termination of Gaussian 16 at Mon Nov 15 11:26:39 2021.

 ----------------------------------------------------------------------
 #N Geom=AllCheck Guess=TCheck SCRF=Check GenChk RwB97XD/Aug-CC-pVDZ Fr
 eq
 ----------------------------------------------------------------------

 Structure from the checkpoint file:  "/gscratch/scrubbed/gds001/Gau-2321.chk"
 --------
 Nicotine
 --------
 Charge =  1 Multiplicity = 1

                         Standard orientation:
 ---------------------------------------------------------------------
 Center     Atomic      Atomic             Coordinates (Angstroms)
 Number     Number       Type             X           Y           Z
 ---------------------------------------------------------------------
      1          6           0        1.299707    2.313396   -0.489513
      2          6           0        1.437398    0.978879   -0.094588
      3          6           0        0.306703    0.338205    0.391890
      4          7           0       -0.867209    0.983935    0.467318
      5          6           0       -1.020097    2.260355    0.085074
      6          6           0        0.067936    2.959979   -0.405343
      7          6           0        2.751524    0.237450   -0.224021
      8          7           0        2.789471   -0.935883    0.639572
      9          6           0        3.589446   -1.951048   -0.040596
     10          6           0        3.134981   -1.823128   -1.487846
     11          6           0        2.995925   -0.301632   -1.665512
     12          8           0       -3.005095   -0.284727    1.389012
     13          8           0       -4.693657   -1.533338   -0.223622
     14          1           0        3.398085   -2.938675    0.396236
     15          1           0        3.842790   -2.262996   -2.197969
     16          1           0        2.165650   -2.320534   -1.618425
     17          1           0        3.922379    0.129586   -2.061565
     18          1           0        2.187750   -0.029919   -2.354074
     19          1           0        4.674444   -1.741646    0.048336
     20          1           0        3.556100    0.952798    0.036143
     21          1           0        0.336933   -0.694710    0.730595
     22          1           0       -2.016357    2.682644    0.190116
     23          1           0       -0.049698    3.996914   -0.710972
     24          1           0        2.168566    2.854189   -0.866743
     25          6           0        3.204424   -0.653996    2.001033
     26          1           0       -1.705085    0.468976    0.845978
     27          1           0       -3.294864   -0.378638    2.298302
     28          1           0       -3.656637   -0.762058    0.820507
     29          1           0       -5.606856   -1.233889   -0.393797
     30          1           0       -4.695104   -2.485213   -0.344524
     31          8           0       -7.251277   -0.644713   -0.710856
     32          1           0       -8.014552   -0.788589   -0.145286
     33          1           0       -7.601670   -0.487491   -1.591588
     34          1           0        2.522658    0.072265    2.464607
     35          1           0        4.231566   -0.242924    2.051134
     36          1           0        3.170623   -1.574982    2.595013
 ---------------------------------------------------------------------

 SCF Done:  E(RwB97XD) =  -728.588185456     A.U. after    1 cycles

 The electronic state is 1-A.
 Alpha  occ. eigenvalues --  -19.39847 -19.38969 -19.37985 -14.66870 -14.54806
 Alpha  occ. eigenvalues --  -10.50323 -10.49562 -10.46969 -10.46228 -10.46145
 Alpha  occ. eigenvalues --  -10.44822 -10.41234 -10.41224 -10.40266 -10.39014
 Alpha  occ. eigenvalues --   -1.25179  -1.24305  -1.23446  -1.21751  -1.15233
 Alpha  occ. eigenvalues --   -1.07380  -1.03682  -0.98944  -0.94627  -0.89822
 Alpha  occ. eigenvalues --   -0.88354  -0.87087  -0.81677  -0.78278  -0.77393
 Alpha  occ. eigenvalues --   -0.74816  -0.74588  -0.73588  -0.73543  -0.72938
 Alpha  occ. eigenvalues --   -0.69873  -0.68599  -0.68185  -0.66864  -0.63710
 Alpha  occ. eigenvalues --   -0.63326  -0.63272  -0.61836  -0.61411  -0.60265
 Alpha  occ. eigenvalues --   -0.58892  -0.57203  -0.56444  -0.55934  -0.54905
 Alpha  occ. eigenvalues --   -0.54057  -0.52847  -0.52706  -0.52149  -0.52098
 Alpha  occ. eigenvalues --   -0.51452  -0.50849  -0.48166  -0.40773
 Alpha virt. eigenvalues --   -0.13347  -0.09797  -0.06364  -0.05137  -0.04410
 Alpha virt. eigenvalues --   -0.03996  -0.03670  -0.02859  -0.02524  -0.02262
 Alpha virt. eigenvalues --   -0.01879  -0.01307  -0.01010  -0.00832  -0.00130

 Mulliken charges:
               1
     1  C    1.148688
     2  C    0.743050
     3  C    0.706819
     4  N    0.004428
     5  C    0.766895
     6  C    0.264525
     7  C    0.940051
     8  N   -0.406122
     9  C    1.173642
    10  C    0.592732
    11  C    0.952526
    12  O   -0.474528
    13  O   -0.380134
    14  H   -0.512423
    15  H   -0.266562
    16  H   -0.377553
    17  H   -0.363294
    18  H   -0.442531
    19  H   -0.455074
    20  H   -0.553384
    21  H   -0.979771
    22  H   -0.657248
    23  H   -0.559150
    24  H   -0.871344
    25  C    0.799679
    26  H    0.100778
    27  H    0.133788
    28  H    0.296832
    29  H    0.232339
    30  H    0.136078
    31  O   -0.316403
    32  H    0.149390
    33  H    0.145989
    34  H   -0.286173
    35  H   -0.171627
    36  H   -0.214909
 Sum of Mulliken charges =   1.00000

 Dipole moment (field-independent basis, Debye):
    X=             -6.9361    Y=              1.7944    Z=             -0.1515  Tot=              7.1661
 Quadrupole moment (field-independent basis, Debye-Ang):
   XX=             10.4398   YY=            -66.1680   ZZ=            -80.2248
   XY=              9.8901   XZ=              1.3293   YZ=             -2.4676

  Exact polarizability: 175.340 -16.386 158.810  -6.121  -6.476 129.926
 Approx polarizability: 178.386  -6.015 174.477  -8.285 -10.521 143.095

                      1                      2                      3
                      A                      A                      A
 Frequencies --      8.6450                12.7444                18.2292
 Red. masses --      4.6673                 3.7321                 3.7471
 Frc consts  --      0.0002                 0.0004                 0.0007
 IR Inten    --      0.4394                 0.5340                 0.3764

                      4                      5                      6
                      A                      A                      A
 Frequencies --     24.2962                31.1742                36.7245
 Red. masses --      3.2977                 4.5732                 4.6522
 Frc consts  --      0.0011                 0.0026                 0.0037
 IR Inten    --      0.1763                 1.3862                 0.9228

                      7                      8                      9
                      A                      A                      A
 Frequencies --     49.8314                95.7550               107.9281
 Red. masses --      6.8576                 3.8854                 1.0392
 Frc consts  --      0.0100                 0.0210                 0.0071
 IR Inten    --      3.3150                 1.3930                30.2412

                     10                     11                     12
                      A                      A                      A
 Frequencies --    120.0894               163.1576               169.3258
 Red. masses --      3.6531                 2.8578                 1.1957
 Frc consts  --      0.0310                 0.0448                 0.0202
 IR Inten    --      2.9655                 8.3312                31.3371

                     13                     14                     15
                      A                      A                      A
 Frequencies --    187.8088               193.5292               211.4293
 Red. masses --      2.8558                 1.4179                 1.6544
 Frc consts  --      0.0593                 0.0313                 0.0436
 IR Inten    --     92.9527               240.7278                 0.2446

                     16                     17                     18
                      A                      A                      A
 Frequencies --    230.4545               242.8511               247.1916
 Red. masses --      1.1627                 3.2843                 1.2922
 Frc consts  --      0.0364                 0.1141                 0.0465
 IR Inten    --     49.6029                12.0902                 2.4415

                     19                     20                     21
                      A                      A                      A
 Frequencies --    258.6324               277.3814               296.8860
 Red. masses --      1.0607                 2.8924                 3.5606
 Frc consts  --      0.0418                 0.1311                 0.1849
 IR Inten    --     55.4633                 2.3310                 1.5879

                     22                     23                     24
                      A                      A                      A
 Frequencies --    341.9477               357.8253               416.7421
 Red. masses --      4.8346                 2.8360                 3.0005
 Frc consts  --      0.3331                 0.2139                 0.3070
 IR Inten    --     16.8514                11.6929                 1.5116

                     25                     26                     27
                      A                      A                      A
 Frequencies --    429.8147               436.6697               526.9152
 Red. masses --      3.1554                 1.0479                 2.4431
 Frc consts  --      0.3435                 0.1177                 0.3996
 IR Inten    --      0.7577                22.6694                 1.5677

                     28                     29                     30
                      A                      A                      A
 Frequencies --    565.8179               586.2361               619.7070
 Red. masses --      1.3950                 2.2534                 4.0133
 Frc consts  --      0.2631                 0.4563                 0.9081
 IR Inten    --     27.1964                 2.6559                11.0075

                     31                     32                     33
                      A                      A                      A
 Frequencies --    643.2174               658.9674               714.0390
 Red. masses --      5.2903                 3.4302                 2.0315
 Frc consts  --      1.2896                 0.8776                 0.6102
 IR Inten    --     15.0540                 2.9249                34.6042

                     34                     35                     36
                      A                      A                      A
 Frequencies --    749.9401               779.8226               837.2888
 Red. masses --      1.0503                 2.5647                 1.4943
 Frc consts  --      0.3480                 0.9189                 0.6172
 IR Inten    --    118.7396                 7.6887                33.6813

                     37                     38                     39
                      A                      A                      A
 Frequencies --    871.8921               899.9298               903.5644
 Red. masses --      2.0578                 1.0451                 1.8156
 Frc consts  --      0.9217                 0.4987                 0.8734
 IR Inten    --      4.8622                79.4572                 9.5920

                     40                     41                     42
                      A                      A                      A
 Frequencies --    938.3542               963.7719               974.4964
 Red. masses --      3.1734                 2.0094                 1.9839
 Frc consts  --      1.6463                 1.0997                 1.1100
 IR Inten    --      5.4932                 3.5364                 3.2533

                     43                     44                     45
                      A                      A                      A
 Frequencies --    980.6622               993.7084              1033.6227
 Red. masses --      1.3040                 1.6036                 1.3838
 Frc consts  --      0.7389                 0.9329                 0.8710
 IR Inten    --      6.0771                 1.5778                 0.2870

                     46                     47                     48
                      A                      A                      A
 Frequencies --   1041.0006              1062.8945              1077.9013
 Red. masses --      3.3803                 2.0912                 1.7553
 Frc consts  --      2.1582                 1.3919                 1.2016
 IR Inten    --      2.4731                 6.0824                16.5399

                     49                     50                     51
                      A                      A                      A
 Frequencies --   1081.7588              1105.9520              1136.1441
 Red. masses --      2.2219                 1.8425                 1.2899
 Frc consts  --      1.5319                 1.3278                 0.9810
 IR Inten    --      3.9062                 8.5502                 7.2848

                     52                     53                     54
                      A                      A                      A
 Frequencies --   1139.5589              1180.3749              1202.7524
 Red. masses --      1.4793                 1.4277                 1.1719
 Frc consts  --      1.1319                 1.1720                 0.9988
 IR Inten    --      3.1414                 5.6113                12.1749

                     55                     56                     57
                      A                      A                      A
 Frequencies --   1213.0603              1231.6172              1237.7871
 Red. masses --      1.6385                 1.9556                 1.0920
 Frc consts  --      1.4205                 1.7477                 0.9858
 IR Inten    --      4.4288                13.7110                34.7834

                     58                     59                     60
                      A                      A                      A
 Frequencies --   1256.0576              1271.2595              1283.5997
 Red. masses --      1.7796                 1.5834                 1.8791
 Frc consts  --      1.6542                 1.5077                 1.8241
 IR Inten    --     11.5562                 9.0173                31.1837

                     61                     62                     63
                      A                      A                      A
 Frequencies --   1292.7981              1308.0689              1339.5787
 Red. masses --      1.4546                 1.3510                 1.6306
 Frc consts  --      1.4324                 1.3620                 1.7240
 IR Inten    --      9.6651                 1.0700                 9.0913

                     64                     65                     66
                      A                      A                      A
 Frequencies --   1347.9124              1361.6286              1374.9816
 Red. masses --      1.4286                 2.9354                 1.6780
 Frc consts  --      1.5293                 3.2066                 1.8692
 IR Inten    --      0.4607                16.8813                13.3804

                     67                     68                     69
                      A                      A                      A
 Frequencies --   1391.9796              1430.8711              1453.5974
 Red. masses --      1.7180                 1.7893                 1.2142
 Frc consts  --      1.9612                 2.1585                 1.5116
 IR Inten    --      8.9669                44.2540                 5.1095

                     70                     71                     72
                      A                      A                      A
 Frequencies --   1477.7958              1483.0849              1491.7695
 Red. masses --      1.0485                 1.0872                 1.0682
 Frc consts  --      1.3491                 1.4090                 1.4006
 IR Inten    --     11.1705                 8.5286                 8.6613

                     73                     74                     75
                      A                      A                      A
 Frequencies --   1500.3933              1509.5958              1519.6395
 Red. masses --      1.0907                 2.2524                 1.1336
 Frc consts  --      1.4466                 3.0243                 1.5424
 IR Inten    --      7.3383                26.8146                 0.8812

                     76                     77                     78
                      A                      A                      A
 Frequencies --   1620.0593              1626.5971              1643.0775
 Red. masses --      2.1258                 1.0871                 1.0873
 Frc consts  --      3.2873                 1.6946                 1.7294
 IR Inten    --     42.0755               130.0826                13.4189

                     79                     80                     81
                      A                      A                      A
 Frequencies --   1674.9407              1695.3552              1713.0223
 Red. masses --      1.0971                 4.6983                 3.0138
 Frc consts  --      1.8133                 7.9564                 5.2106
 IR Inten    --      4.8595                10.4167                 7.1588

                     82                     83                     84
                      A                      A                      A
 Frequencies --   2933.1134              2963.3084              2967.4223
 Red. masses --      1.1010                 1.0790                 1.0743
 Frc consts  --      5.5805                 5.5825                 5.5737
 IR Inten    --   2805.7896                32.0043                30.1037

                     85                     86                     87
                      A                      A                      A
 Frequencies --   2973.0794              3084.9925              3086.3159
 Red. masses --      1.0554                 1.0833                 1.0640
 Frc consts  --      5.4965                 6.0744                 5.9713
 IR Inten    --     73.8973                30.4380                15.8630

                     88                     89                     90
                      A                      A                      A
 Frequencies --   3094.6331              3116.4722              3141.2595
 Red. masses --      1.0630                 1.0915                 1.1048
 Frc consts  --      5.9980                 6.2458                 6.4228
 IR Inten    --     20.3702                25.5100                 5.6854

                     91                     92                     93
                      A                      A                      A
 Frequencies --   3141.5836              3157.5582              3209.6471
 Red. masses --      1.1016                 1.1055                 1.0922
 Frc consts  --      6.4058                 6.4941                 6.6295
 IR Inten    --     19.2723                25.7018                 0.4501

                     94                     95                     96
                      A                      A                      A
 Frequencies --   3245.1597              3250.1480              3261.7038
 Red. masses --      1.0931                 1.0950                 1.1001
 Frc consts  --      6.7825                 6.8153                 6.8956
 IR Inten    --      1.3144                 9.2381                 1.9499

                     97                     98                     99
                      A                      A                      A
 Frequencies --   3382.8446              3616.3999              3879.1360
 Red. masses --      1.0647                 1.0604                 1.0452
 Frc consts  --      7.1784                 8.1713                 9.2662
 IR Inten    --   1330.0808               634.8973                27.3845

                    100                    101                    102
                      A                      A                      A
 Frequencies --   3951.6641              3955.1662              3985.5407
 Red. masses --      1.0691                 1.0674                 1.0830
 Frc consts  --      9.8359                 9.8381                10.1358
 IR Inten    --    101.2715                94.2261               114.6524

 - Thermochemistry -
 -------------------
 Temperature   180.000 Kelvin.  Pressure   1.00000 Atm.
 Atom     1 has atomic number  6 and mass  12.00000

 Molecular mass:   217.15522 amu.
 Principal axes and moments of inertia in atomic units:
                           1         2         3
     Eigenvalues --  2445.019239479.51899**********
           X            1.00000  -0.00078   0.00122
           Y            0.00079   0.99999  -0.00477
           Z           -0.00121   0.00477   0.99999
 This molecule is an asymmetric top.
 Rotational symmetry number  1.
 Warning -- assumption of classical behavior for rotation
           may cause significant error
 Rotational temperatures (Kelvin)      0.03542     0.00914     0.00831
 Rotational constants (GHZ):           0.73813     0.19038     0.17313
 Zero-point vibrational energy     827723.9 (Joules/Mol)
                                  197.83076 (Kcal/Mol)
 Warning -- explicit consideration of  23 degrees of freedom as
           vibrations may cause significant error
 Vibrational temperatures:     12.44    18.34    26.23    34.96    44.85
          (Kelvin)             52.84    71.70   137.77   155.28   172.78
                              234.75   243.62   270.21   278.45   304.20
                              331.57   349.41   355.65   372.11   399.09
                              427.15   491.99   514.83   599.60   618.41
                              628.27   758.11   814.09   843.46   891.62
                              925.45   948.11  1027.34  1079.00  1121.99
                             1204.67  1254.46  1294.80  1300.03  1350.08
                             1386.65  1402.08  1410.95  1429.72  1487.15
                             1497.77  1529.27  1550.86  1556.41  1591.22
                             1634.66  1639.57  1698.30  1730.49  1745.32
                             1772.02  1780.90  1807.19  1829.06  1846.81
                             1860.05  1882.02  1927.36  1939.35  1959.08
                             1978.29  2002.75  2058.70  2091.40  2126.22
                             2133.83  2146.32  2158.73  2171.97  2186.42
                             2330.90  2340.31  2364.02  2409.87  2439.24
                             2464.66  4220.10  4263.54  4269.46  4277.60
                             4438.62  4440.52  4452.49  4483.91  4519.57
                             4520.04  4543.02  4617.97  4669.06  4676.24
                             4692.86  4867.16  5203.19  5581.21  5685.56
                             5690.60  5734.30

 Zero-point correction=                           0.315263 (Hartree/Particle)
 Thermal correction to Energy=                    0.324531
 Thermal correction to Enthalpy=                  0.325101
 Thermal correction to Gibbs Free Energy=         0.287321
 Sum of electronic and zero-point Energies=           -728.272922
 Sum of electronic and thermal Energies=              -728.263654
 Sum of electronic and thermal Enthalpies=            -728.263084
 Sum of electronic and thermal Free Energies=         -728.300864

                     E (Thermal)             CV                S
                      KCal/Mol        Cal/Mol-Kelvin    Cal/Mol-Kelvin
 Total                  203.646             50.597            131.706
 Electronic               0.000              0.000              0.000
 Translational            0.537              2.981             39.522
 Rotational               0.537              2.981             32.342
 Vibrational            202.573             44.635             59.842
 Vibration     1          0.358              1.986              7.298
 Vibration     2          0.358              1.985              6.527
 Vibration     3          0.358              1.984              5.817
 Vibration     4          0.359              1.981              5.247
 Vibration     5          0.360              1.977              4.754
 Vibration     6          0.360              1.973              4.430
 Vibration     7          0.362              1.961              3.830
 Vibration     8          0.375              1.893              2.566
 Vibration     9          0.380              1.868              2.341
 Vibration    10          0.385              1.841              2.143
 Vibration    11          0.407              1.728              1.595
 Vibration    12          0.411              1.710              1.531
 Vibration    13          0.422              1.653              1.357
 Vibration    14          0.426              1.634              1.307
 Vibration    15          0.439              1.575              1.165
 Vibration    16          0.454              1.509              1.032
 Vibration    17          0.464              1.465              0.954
 Vibration    18          0.467              1.450              0.929
 Vibration    19          0.477              1.408              0.864
 Vibration    20          0.493              1.340              0.768
 Vibration    21          0.512              1.268              0.679
 Vibration    22          0.557              1.104              0.511
 Vibration    23          0.574              1.047              0.462

 Optimization completed on the basis of negligible forces.
    -- Stationary point found.
 Normal termination of Gaussian 16 at Mon Nov 15 12:06:25 2021.
