 Gaussian 16, Revision A.03,
 Gaussian 16:  ES64L-G16RevA.03 25-Dec-2016

 ---------------------------------------------
 # wB97XD/aug-cc-pVDZ opt freq temperature=180
 ---------------------------------------------

 --------
 Nicotine
 --------
 Symbolic Z-matrix:
 Charge =  1 Multiplicity = 1

 SCF Done:  E(RwB97XD) =  -728.587848840     A.U. after   14 cycles
 SCF Done:  E(RwB97XD) =  -728.587848853     A.U. after    9 cycles
 SCF Done:  E(RwB97XD) =  -728.587848884     A.U. after    9 cycles
 Optimization completed.
    -- Stationary point found.
 Normal termination of Gaussian 16 at Mon Nov 15 11:28:07 2021.

 ----------------------------------------------------------------------
 #N Geom=AllCheck Guess=TCheck SCRF=Check GenChk RwB97XD/Aug-CC-pVDZ Fr
 eq
 ----------------------------------------------------------------------

 Structure from the checkpoint file:  "/gscratch/scrubbed/gds001/Gau-308989.chk"
 --------
 Nicotine
 --------
 Charge =  1 Multiplicity = 1

                         Standard orientation:
 ---------------------------------------------------------------------
 Center     Atomic      Atomic             Coordinates (Angstroms)
 Number     Number       Type             X           Y           Z
 ---------------------------------------------------------------------
      1          6           0       -1.126248    2.399169   -0.199442
      2          6           0       -1.187368    1.002865   -0.156971
      3          6           0        0.014904    0.314125   -0.074398
      4          7           0        1.181946    0.973605   -0.029293
      5          6           0        1.258375    2.311786   -0.060343
      6          6           0        0.098758    3.061571   -0.147162
      7          6           0       -2.506512    0.260146   -0.157617
      8          7           0       -2.342397   -1.123342   -0.585078
      9          6           0       -3.351752   -1.912323    0.116059
     10          6           0       -3.321505   -1.326268    1.520952
     11          6           0       -3.150490    0.180522    1.259124
     12          8           0        3.438924   -0.350848    0.116551
     13          8           0        4.792351   -1.209076   -2.126150
     14          1           0       -3.093996   -2.977651    0.076955
     15          1           0       -4.226391   -1.549980    2.095345
     16          1           0       -2.460185   -1.725121    2.071251
     17          1           0       -4.121688    0.688093    1.246346
     18          1           0       -2.535310    0.671150    2.021928
     19          1           0       -4.354848   -1.785827   -0.338988
     20          1           0       -3.190262    0.808966   -0.834873
     21          1           0        0.049985   -0.772492   -0.051065
     22          1           0        2.256308    2.741143   -0.018729
     23          1           0        0.157623    4.146975   -0.178340
     24          1           0       -2.049174    2.975371   -0.275736
     25          6           0       -2.337561   -1.298143   -2.025366
     26          1           0        2.084471    0.416321    0.030050
     27          1           0        3.952245   -0.682535   -0.641764
     28          1           0        3.867559   -0.655323    0.936406
     29          1           0        5.593768   -0.798481   -2.461542
     30          1           0        4.802942   -2.111168   -2.456809
     31          8           0        4.544492   -1.130700    2.518047
     32          1           0        5.306472   -0.707558    2.922638
     33          1           0        4.519045   -2.021525    2.877232
     34          1           0       -2.177425   -2.355398   -2.267891
     35          1           0       -1.519670   -0.720030   -2.476894
     36          1           0       -3.288053   -0.972473   -2.491522
 ---------------------------------------------------------------------

 SCF Done:  E(RwB97XD) =  -728.587848884     A.U. after    1 cycles

 The electronic state is 1-A.
 Alpha  occ. eigenvalues --  -19.40370 -19.40366 -19.37660 -14.66265 -14.54714
 Alpha  occ. eigenvalues --  -10.49938 -10.49215 -10.46658 -10.45918 -10.45866
 Alpha  occ. eigenvalues --  -10.44650 -10.41171 -10.41146 -10.40123 -10.38907
 Alpha  occ. eigenvalues --   -1.24929  -1.24627  -1.24525  -1.21733  -1.15125
 Alpha  occ. eigenvalues --   -1.07048  -1.03339  -0.98810  -0.94409  -0.89417
 Alpha  occ. eigenvalues --   -0.88113  -0.86922  -0.81283  -0.78136  -0.77207
 Alpha  occ. eigenvalues --   -0.75081  -0.75071  -0.74338  -0.73293  -0.72585
 Alpha  occ. eigenvalues --   -0.69683  -0.68426  -0.67889  -0.66495  -0.63908
 Alpha  occ. eigenvalues --   -0.63349  -0.63181  -0.61748  -0.60327  -0.60301
 Alpha  occ. eigenvalues --   -0.60103  -0.57289  -0.56233  -0.55735  -0.54790
 Alpha  occ. eigenvalues --   -0.53931  -0.53336  -0.53113  -0.52032  -0.51850
 Alpha  occ. eigenvalues --   -0.51826  -0.50697  -0.47884  -0.40702
 Alpha virt. eigenvalues --   -0.12974  -0.09523  -0.06617  -0.05041  -0.04868
 Alpha virt. eigenvalues --   -0.04152  -0.03358  -0.03066  -0.02791  -0.02231
 Alpha virt. eigenvalues --   -0.01543  -0.01224  -0.01176  -0.00737  -0.00262

 Mulliken charges:
               1
     1  C    1.120241
     2  C    0.749860
     3  C    0.732000
     4  N   -0.001457
     5  C    0.801208
     6  C    0.242738
     7  C    0.952346
     8  N   -0.413100
     9  C    1.183801
    10  C    0.599712
    11  C    0.947222
    12  O   -0.455643
    13  O   -0.334767
    14  H   -0.515343
    15  H   -0.270398
    16  H   -0.375180
    17  H   -0.360572
    18  H   -0.443013
    19  H   -0.449523
    20  H   -0.569643
    21  H   -0.999732
    22  H   -0.674642
    23  H   -0.561942
    24  H   -0.869156
    25  C    0.800488
    26  H    0.131951
    27  H    0.217834
    28  H    0.220019
    29  H    0.150524
    30  H    0.153001
    31  O   -0.336144
    32  H    0.150282
    33  H    0.154319
    34  H   -0.215408
    35  H   -0.290903
    36  H   -0.170982
 Sum of Mulliken charges =   1.00000

 Dipole moment (field-independent basis, Debye):
    X=              6.9213    Y=              0.8668    Z=              0.1521  Tot=              6.9771
 Quadrupole moment (field-independent basis, Debye-Ang):
   XX=            -13.9432   YY=            -61.4725   ZZ=            -72.2376
   XY=            -12.6772   XZ=              1.4137   YZ=             -0.7888

  Exact polarizability: 174.129  12.786 162.093  -1.977   0.111 127.735
 Approx polarizability: 179.379   3.856 179.471   1.170  -1.397 137.111

                      1                      2                      3
                      A                      A                      A
 Frequencies --      6.6243                15.4005                20.1351
 Red. masses --      4.3558                 3.0498                 4.0063
 Frc consts  --      0.0001                 0.0004                 0.0010
 IR Inten    --      0.0818                 0.1584                 2.3688

                      4                      5                      6
                      A                      A                      A
 Frequencies --     24.5591                32.4018                40.2980
 Red. masses --      4.0769                 4.1313                 5.5489
 Frc consts  --      0.0014                 0.0026                 0.0053
 IR Inten    --      1.6442                 0.4772                 1.6222

                      7                      8                      9
                      A                      A                      A
 Frequencies --     43.6411                94.4715               102.5583
 Red. masses --      6.5451                 3.4801                 1.0374
 Frc consts  --      0.0073                 0.0183                 0.0064
 IR Inten    --      5.9553                 0.4657                 2.5591

                     10                     11                     12
                      A                      A                      A
 Frequencies --    116.5195               121.9379               142.8902
 Red. masses --      1.0441                 3.5661                 5.5767
 Frc consts  --      0.0084                 0.0312                 0.0671
 IR Inten    --     24.0990                 1.4483                20.4357

                     13                     14                     15
                      A                      A                      A
 Frequencies --    170.9757               180.2521               209.6199
 Red. masses --      3.5584                 1.1549                 1.6509
 Frc consts  --      0.0613                 0.0221                 0.0427
 IR Inten    --      3.4883               249.3409                 0.5607

                     16                     17                     18
                      A                      A                      A
 Frequencies --    224.2994               238.3639               246.0561
 Red. masses --      1.1544                 1.0797                 4.9045
 Frc consts  --      0.0342                 0.0361                 0.1750
 IR Inten    --    180.1930                24.6500                50.3862

                     19                     20                     21
                      A                      A                      A
 Frequencies --    246.4283               248.6933               275.1193
 Red. masses --      1.1573                 1.1022                 2.9277
 Frc consts  --      0.0414                 0.0402                 0.1306
 IR Inten    --      1.3775                 4.5896                 0.2061

                     22                     23                     24
                      A                      A                      A
 Frequencies --    296.2389               322.0984               359.8986
 Red. masses --      3.7138                 5.4214                 2.8180
 Frc consts  --      0.1920                 0.3314                 0.2151
 IR Inten    --      0.6680                15.9317                14.1815

                     25                     26                     27
                      A                      A                      A
 Frequencies --    418.6224               430.2084               534.6646
 Red. masses --      3.0859                 3.1907                 3.8068
 Frc consts  --      0.3186                 0.3479                 0.6412
 IR Inten    --      1.0840                 0.7930                 2.1975

                     28                     29                     30
                      A                      A                      A
 Frequencies --    585.9120               623.1242               643.0560
 Red. masses --      2.4228                 4.1087                 3.6158
 Frc consts  --      0.4900                 0.9399                 0.8810
 IR Inten    --      0.6592                15.9573                15.2728

                     31                     32                     33
                      A                      A                      A
 Frequencies --    650.2892               663.2080               715.1852
 Red. masses --      1.6153                 1.9632                 2.0185
 Frc consts  --      0.4025                 0.5088                 0.6083
 IR Inten    --     17.1680                12.5431                38.1935

                     34                     35                     36
                      A                      A                      A
 Frequencies --    742.6211               758.0412               779.5553
 Red. masses --      1.0630                 1.0306                 2.4958
 Frc consts  --      0.3454                 0.3489                 0.8936
 IR Inten    --    200.4988                 0.2781                 8.3434

                     37                     38                     39
                      A                      A                      A
 Frequencies --    837.6312               870.9588               905.2963
 Red. masses --      1.4978                 2.0571                 1.8146
 Frc consts  --      0.6192                 0.9194                 0.8762
 IR Inten    --     34.0267                 4.6602                 8.1050

                     40                     41                     42
                      A                      A                      A
 Frequencies --    938.1248               964.2227               975.1146
 Red. masses --      3.1799                 1.9867                 1.9991
 Frc consts  --      1.6489                 1.0883                 1.1199
 IR Inten    --      6.7494                 3.7141                 4.3438

                     43                     44                     45
                      A                      A                      A
 Frequencies --    981.6885               994.4914              1033.3806
 Red. masses --      1.3104                 1.6290                 1.3837
 Frc consts  --      0.7441                 0.9493                 0.8706
 IR Inten    --      5.3695                 1.4863                 0.2269

                     46                     47                     48
                      A                      A                      A
 Frequencies --   1043.0886              1063.9457              1078.6078
 Red. masses --      3.7131                 2.0990                 1.7602
 Frc consts  --      2.3803                 1.3999                 1.2065
 IR Inten    --      4.4122                 6.2119                17.1304

                     49                     50                     51
                      A                      A                      A
 Frequencies --   1086.0817              1106.1282              1137.0274
 Red. masses --      2.1843                 1.8667                 1.2653
 Frc consts  --      1.5181                 1.3457                 0.9638
 IR Inten    --      2.8358                 8.8495                 5.0316

                     52                     53                     54
                      A                      A                      A
 Frequencies --   1142.4988              1182.1482              1207.6597
 Red. masses --      1.4974                 1.4223                 1.1723
 Frc consts  --      1.1516                 1.1711                 1.0073
 IR Inten    --      4.3756                 6.4453                 8.5073

                     55                     56                     57
                      A                      A                      A
 Frequencies --   1214.9140              1233.4505              1255.9360
 Red. masses --      1.6448                 1.9790                 1.7674
 Frc consts  --      1.4304                 1.7739                 1.6426
 IR Inten    --      3.9285                17.7709                11.2583

                     58                     59                     60
                      A                      A                      A
 Frequencies --   1273.0476              1278.7819              1283.5328
 Red. masses --      1.5728                 1.0819                 1.9873
 Frc consts  --      1.5018                 1.0424                 1.9289
 IR Inten    --      8.0933                31.5965                30.4395

                     61                     62                     63
                      A                      A                      A
 Frequencies --   1302.2113              1308.0447              1339.3867
 Red. masses --      1.4720                 1.3419                 1.5481
 Frc consts  --      1.4707                 1.3527                 1.6363
 IR Inten    --     11.0308                 0.7278                 7.9271

                     64                     65                     66
                      A                      A                      A
 Frequencies --   1347.4755              1362.9593              1376.3881
 Red. masses --      1.4724                 2.7579                 1.6647
 Frc consts  --      1.5752                 3.0185                 1.8581
 IR Inten    --      0.9652                17.8035                14.2439

                     67                     68                     69
                      A                      A                      A
 Frequencies --   1392.2060              1433.1690              1453.7288
 Red. masses --      1.7110                 1.7806                 1.2211
 Frc consts  --      1.9540                 2.1548                 1.5204
 IR Inten    --      9.6444                42.9575                 6.3018

                     70                     71                     72
                      A                      A                      A
 Frequencies --   1477.7295              1483.3110              1490.7534
 Red. masses --      1.0474                 1.0853                 1.0696
 Frc consts  --      1.3476                 1.4069                 1.4005
 IR Inten    --     11.2953                 7.8690                 8.4940

                     73                     74                     75
                      A                      A                      A
 Frequencies --   1500.5695              1512.2069              1519.9292
 Red. masses --      1.0911                 2.1611                 1.1549
 Frc consts  --      1.4476                 2.9117                 1.5720
 IR Inten    --      7.6237                29.2848                 0.9113

                     76                     77                     78
                      A                      A                      A
 Frequencies --   1621.4452              1626.0279              1634.9009
 Red. masses --      1.5215                 1.3709                 1.0861
 Frc consts  --      2.3569                 2.1356                 1.7105
 IR Inten    --     46.5134                87.1525                56.6703

                     79                     80                     81
                      A                      A                      A
 Frequencies --   1662.5061              1697.3664              1716.6717
 Red. masses --      1.1093                 4.6178                 2.8100
 Frc consts  --      1.8065                 7.8386                 4.8790
 IR Inten    --     10.7284                 9.5340                 7.7412

                     82                     83                     84
                      A                      A                      A
 Frequencies --   2800.0117              2959.4463              2964.1450
 Red. masses --      1.1074                 1.0801                 1.0744
 Frc consts  --      5.1155                 5.5737                 5.5616
 IR Inten    --   3051.0834                27.7910                51.9370

                     85                     86                     87
                      A                      A                      A
 Frequencies --   2972.2667              3087.3303              3088.3833
 Red. masses --      1.0547                 1.0824                 1.0636
 Frc consts  --      5.4900                 6.0786                 5.9770
 IR Inten    --     79.4188                30.8063                15.1943

                     88                     89                     90
                      A                      A                      A
 Frequencies --   3095.3340              3118.3050              3141.6788
 Red. masses --      1.0637                 1.0911                 1.1022
 Frc consts  --      6.0044                 6.2512                 6.4094
 IR Inten    --     20.6976                25.7548                17.7577

                     91                     92                     93
                      A                      A                      A
 Frequencies --   3141.9530              3159.7024              3206.6650
 Red. masses --      1.1047                 1.1053                 1.0924
 Frc consts  --      6.4256                 6.5014                 6.6181
 IR Inten    --      8.4990                25.1871                 0.4397

                     94                     95                     96
                      A                      A                      A
 Frequencies --   3244.6509              3250.6292              3259.8641
 Red. masses --      1.0926                 1.0949                 1.1004
 Frc consts  --      6.7774                 6.8164                 6.8895
 IR Inten    --      1.1313                 7.8806                 1.1753

                     97                     98                     99
                      A                      A                      A
 Frequencies --   3615.5750              3674.0457              3876.7928
 Red. masses --      1.0446                 1.0890                 1.0453
 Frc consts  --      8.0459                 8.6609                 9.2562
 IR Inten    --    497.5890              1092.7603                23.7673

                    100                    101                    102
                      A                      A                      A
 Frequencies --   3878.6323              3982.1316              3984.0279
 Red. masses --      1.0453                 1.0829                 1.0829
 Frc consts  --      9.2648                10.1170                10.1269
 IR Inten    --     26.7184                89.7691               126.1621

 - Thermochemistry -
 -------------------
 Temperature   180.000 Kelvin.  Pressure   1.00000 Atm.
 Atom     1 has atomic number  6 and mass  12.00000

 Molecular mass:   217.15522 amu.
 Principal axes and moments of inertia in atomic units:
                           1         2         3
     Eigenvalues --  2975.158607694.142598242.69230
           X            1.00000  -0.00086   0.00077
           Y            0.00085   0.99990   0.01407
           Z           -0.00079  -0.01407   0.99990
 This molecule is an asymmetric top.
 Rotational symmetry number  1.
 Warning -- assumption of classical behavior for rotation
           may cause significant error
 Rotational temperatures (Kelvin)      0.02911     0.01126     0.01051
 Rotational constants (GHZ):           0.60660     0.23456     0.21895
 Zero-point vibrational energy     826453.8 (Joules/Mol)
                                  197.52720 (Kcal/Mol)
 Warning -- explicit consideration of  24 degrees of freedom as
           vibrations may cause significant error
 Vibrational temperatures:      9.53    22.16    28.97    35.34    46.62
          (Kelvin)             57.98    62.79   135.92   147.56   167.65
                              175.44   205.59   246.00   259.34   301.60
                              322.72   342.95   354.02   354.56   357.81
                              395.84   426.22   463.43   517.81   602.30
                              618.97   769.26   843.00   896.54   925.21
                              935.62   954.21  1028.99  1068.47  1090.65
                             1121.61  1205.16  1253.12  1302.52  1349.75
                             1387.30  1402.97  1412.43  1430.85  1486.80
                             1500.77  1530.78  1551.88  1562.63  1591.47
                             1635.93  1643.80  1700.85  1737.55  1747.99
                             1774.66  1807.01  1831.63  1839.88  1846.72
                             1873.59  1881.98  1927.08  1938.72  1960.99
                             1980.32  2003.07  2062.01  2091.59  2126.12
                             2134.15  2144.86  2158.98  2175.73  2186.84
                             2332.90  2339.49  2352.26  2391.98  2442.13
                             2469.91  4028.59  4257.98  4264.74  4276.43
                             4441.98  4443.49  4453.50  4486.55  4520.18
                             4520.57  4546.11  4613.68  4668.33  4676.93
                             4690.22  5202.01  5286.13  5577.84  5580.49
                             5729.40  5732.13

 Zero-point correction=                           0.314780 (Hartree/Particle)
 Thermal correction to Energy=                    0.324340
 Thermal correction to Enthalpy=                  0.324910
 Thermal correction to Gibbs Free Energy=         0.286618
 Sum of electronic and zero-point Energies=           -728.273069
 Sum of electronic and thermal Energies=              -728.263508
 Sum of electronic and thermal Enthalpies=            -728.262938
 Sum of electronic and thermal Free Energies=         -728.301231

                     E (Thermal)             CV                S
                      KCal/Mol        Cal/Mol-Kelvin    Cal/Mol-Kelvin
 Total                  203.527             51.630            133.494
 Electronic               0.000              0.000              0.000
 Translational            0.537              2.981             39.522
 Rotational               0.537              2.981             32.096
 Vibrational            202.454             45.668             61.875
 Vibration     1          0.358              1.987              7.827
 Vibration     2          0.358              1.985              6.151
 Vibration     3          0.358              1.983              5.619
 Vibration     4          0.359              1.981              5.226
 Vibration     5          0.360              1.976              4.677
 Vibration     6          0.361              1.970              4.247
 Vibration     7          0.361              1.967              4.090
 Vibration     8          0.375              1.895              2.592
 Vibration     9          0.378              1.880              2.437
 Vibration    10          0.383              1.850              2.199
 Vibration    11          0.386              1.837              2.115
 Vibration    12          0.396              1.785              1.828
 Vibration    13          0.412              1.705              1.514
 Vibration    14          0.418              1.676              1.425
 Vibration    15          0.438              1.581              1.179
 Vibration    16          0.449              1.531              1.073
 Vibration    17          0.460              1.481              0.982
 Vibration    18          0.466              1.454              0.935
 Vibration    19          0.467              1.452              0.933
 Vibration    20          0.468              1.444              0.920
 Vibration    21          0.491              1.348              0.779
 Vibration    22          0.511              1.271              0.682
 Vibration    23          0.536              1.176              0.579
 Vibration    24          0.576              1.040              0.456

                           ! Non-Optimized Parameters !
 Normal termination of Gaussian 16 at Mon Nov 15 12:04:13 2021.
