 Gaussian 16, Revision A.03,
 Gaussian 16:  ES64L-G16RevA.03 25-Dec-2016

 ---------------------------------------------
 # wB97XD/aug-cc-pVDZ opt freq Temperature=130
 ---------------------------------------------

 --------
 Nicotine
 --------
 Symbolic Z-matrix:
 Charge =  1 Multiplicity = 1

 SCF Done:  E(RwB97XD) =  -728.586790508     A.U. after   14 cycles
 SCF Done:  E(RwB97XD) =  -728.587417113     A.U. after   12 cycles
 SCF Done:  E(RwB97XD) =  -728.587613538     A.U. after   13 cycles
 SCF Done:  E(RwB97XD) =  -728.587734120     A.U. after   12 cycles
 SCF Done:  E(RwB97XD) =  -728.587871993     A.U. after   14 cycles
 SCF Done:  E(RwB97XD) =  -728.587965747     A.U. after   12 cycles
 SCF Done:  E(RwB97XD) =  -728.587996354     A.U. after   12 cycles
 SCF Done:  E(RwB97XD) =  -728.588026600     A.U. after   13 cycles
 SCF Done:  E(RwB97XD) =  -728.588110579     A.U. after   12 cycles
 SCF Done:  E(RwB97XD) =  -728.588158572     A.U. after   11 cycles
 SCF Done:  E(RwB97XD) =  -728.588189837     A.U. after   11 cycles
 SCF Done:  E(RwB97XD) =  -728.588193680     A.U. after   11 cycles
 SCF Done:  E(RwB97XD) =  -728.588194603     A.U. after   10 cycles
 SCF Done:  E(RwB97XD) =  -728.588195446     A.U. after   10 cycles
 SCF Done:  E(RwB97XD) =  -728.588195658     A.U. after   10 cycles
 SCF Done:  E(RwB97XD) =  -728.588195723     A.U. after   10 cycles
 SCF Done:  E(RwB97XD) =  -728.588195758     A.U. after    8 cycles
 SCF Done:  E(RwB97XD) =  -728.588195779     A.U. after    9 cycles
 SCF Done:  E(RwB97XD) =  -728.588195781     A.U. after    8 cycles
 Optimization completed.
    -- Stationary point found.
 Normal termination of Gaussian 16 at Mon Jul 12 13:20:45 2021.

 ----------------------------------------------------------------------
 #N Geom=AllCheck Guess=TCheck SCRF=Check GenChk RwB97XD/Aug-CC-pVDZ Fr
 eq
 ----------------------------------------------------------------------

 Structure from the checkpoint file:  "NicPySa3h3.chk"
 --------
 Nicotine
 --------
 Charge =  1 Multiplicity = 1

                         Standard orientation:
 ---------------------------------------------------------------------
 Center     Atomic      Atomic             Coordinates (Angstroms)
 Number     Number       Type             X           Y           Z
 ---------------------------------------------------------------------
      1          6           0       -1.260918    2.236382   -0.699465
      2          6           0       -1.400772    0.898962   -0.314999
      3          6           0       -0.293021    0.276907    0.242892
      4          7           0        0.857715    0.947147    0.408586
      5          6           0        1.008065    2.231439    0.052799
      6          6           0       -0.055547    2.910807   -0.513855
      7          6           0       -2.714008    0.158191   -0.459220
      8          7           0       -2.518408   -1.285678   -0.422572
      9          6           0       -3.690711   -1.870138    0.223692
     10          6           0       -3.971055   -0.893692    1.357313
     11          6           0       -3.708613    0.470931    0.698716
     12          8           0        2.963221   -0.288786    1.442330
     13          8           0        4.772949   -1.467731   -0.089550
     14          1           0       -3.466565   -2.888417    0.563917
     15          1           0       -4.988988   -0.977743    1.751612
     16          1           0       -3.269009   -1.069912    2.182086
     17          1           0       -4.633763    0.883124    0.279925
     18          1           0       -3.309888    1.210054    1.402815
     19          1           0       -4.554451   -1.922775   -0.469187
     20          1           0       -3.164008    0.477760   -1.419337
     21          1           0       -0.319991   -0.764813    0.553883
     22          1           0        1.985055    2.673544    0.231439
     23          1           0        0.063061    3.950783   -0.808576
     24          1           0       -2.106400    2.756511   -1.151480
     25          6           0       -2.183481   -1.869696   -1.707668
     26          1           0        1.680867    0.444028    0.832646
     27          1           0        3.658882   -0.740205    0.905916
     28          1           0        3.201059   -0.391242    2.365648
     29          1           0        5.683529   -1.137712   -0.209906
     30          1           0        4.811383   -2.417915   -0.217454
     31          8           0        7.321503   -0.492046   -0.439239
     32          1           0        8.059139   -0.615077    0.164019
     33          1           0        7.711216   -0.321200   -1.300711
     34          1           0       -1.259476   -1.422992   -2.099961
     35          1           0       -2.983824   -1.721530   -2.458691
     36          1           0       -2.013993   -2.946610   -1.590254
 ---------------------------------------------------------------------

 SCF Done:  E(RwB97XD) =  -728.588195781     A.U. after    1 cycles

 The electronic state is 1-A.
 Alpha  occ. eigenvalues --  -19.39854 -19.38967 -19.37989 -14.66862 -14.54800
 Alpha  occ. eigenvalues --  -10.50318 -10.49546 -10.46964 -10.46223 -10.46132
 Alpha  occ. eigenvalues --  -10.44823 -10.41258 -10.41221 -10.40253 -10.38996
 Alpha  occ. eigenvalues --   -1.25172  -1.24311  -1.23445  -1.21755  -1.15224
 Alpha  occ. eigenvalues --   -1.07373  -1.03673  -0.98947  -0.94622  -0.89817
 Alpha  occ. eigenvalues --   -0.88353  -0.87086  -0.81671  -0.78276  -0.77378
 Alpha  occ. eigenvalues --   -0.74819  -0.74593  -0.73576  -0.73547  -0.72931
 Alpha  occ. eigenvalues --   -0.69875  -0.68607  -0.68184  -0.66852  -0.63715
 Alpha  occ. eigenvalues --   -0.63310  -0.63269  -0.61826  -0.61417  -0.60267
 Alpha  occ. eigenvalues --   -0.58908  -0.57195  -0.56447  -0.55938  -0.54902
 Alpha  occ. eigenvalues --   -0.54059  -0.52847  -0.52710  -0.52132  -0.52099
 Alpha  occ. eigenvalues --   -0.51457  -0.50851  -0.48160  -0.40757
 Alpha virt. eigenvalues --   -0.13345  -0.09781  -0.06367  -0.05125  -0.04441
 Alpha virt. eigenvalues --   -0.04058  -0.03483  -0.02913  -0.02598  -0.02254
 Alpha virt. eigenvalues --   -0.01894  -0.01380  -0.00994  -0.00612  -0.00288

 Mulliken charges:
               1
     1  C    1.139419
     2  C    0.729428
     3  C    0.721030
     4  N    0.003680
     5  C    0.744175
     6  C    0.284670
     7  C    0.954692
     8  N   -0.409003
     9  C    1.162642
    10  C    0.608271
    11  C    0.936184
    12  O   -0.475295
    13  O   -0.379596
    14  H   -0.512603
    15  H   -0.265809
    16  H   -0.374230
    17  H   -0.364051
    18  H   -0.445880
    19  H   -0.455024
    20  H   -0.543695
    21  H   -0.979956
    22  H   -0.656456
    23  H   -0.559842
    24  H   -0.870586
    25  C    0.793839
    26  H    0.107784
    27  H    0.295462
    28  H    0.134743
    29  H    0.233012
    30  H    0.135727
    31  O   -0.317298
    32  H    0.149387
    33  H    0.146224
    34  H   -0.287279
    35  H   -0.167469
    36  H   -0.216296
 Sum of Mulliken charges =   1.00000

 Dipole moment (field-independent basis, Debye):
    X=              6.9975    Y=              1.8525    Z=             -0.0574  Tot=              7.2388
 Quadrupole moment (field-independent basis, Debye-Ang):
   XX=             12.6795   YY=            -66.5215   ZZ=            -81.5621
   XY=             -8.8860   XZ=              0.7277   YZ=             -2.8877

  Exact polarizability: 178.140  14.612 159.898   2.946  -5.221 126.039
 Approx polarizability: 177.896   6.401 174.406   9.237 -10.500 143.627

                      1                      2                      3
                      A                      A                      A
 Frequencies --     10.0596                13.6717                19.7883
 Red. masses --      4.7142                 4.5424                 3.4167
 Frc consts  --      0.0003                 0.0005                 0.0008
 IR Inten    --      0.2900                 0.6187                 0.6248

                      4                      5                      6
                      A                      A                      A
 Frequencies --     27.5659                30.2360                39.2319
 Red. masses --      4.0190                 3.6357                 4.2586
 Frc consts  --      0.0018                 0.0020                 0.0039
 IR Inten    --      0.4960                 0.5737                 1.5686

                      7                      8                      9
                      A                      A                      A
 Frequencies --     49.4970                96.2514                99.5275
 Red. masses --      6.9538                 3.5957                 1.0674
 Frc consts  --      0.0100                 0.0196                 0.0062
 IR Inten    --      3.5311                 0.9446                29.7141

                     10                     11                     12
                      A                      A                      A
 Frequencies --    122.0017               159.9375               170.3126
 Red. masses --      3.6384                 1.6049                 1.7332
 Frc consts  --      0.0319                 0.0242                 0.0296
 IR Inten    --      2.0526                28.7542                19.7750

                     13                     14                     15
                      A                      A                      A
 Frequencies --    187.0831               191.6819               214.2915
 Red. masses --      2.5790                 1.5184                 1.6402
 Frc consts  --      0.0532                 0.0329                 0.0444
 IR Inten    --    108.0964               220.5559                 0.6408

                     16                     17                     18
                      A                      A                      A
 Frequencies --    229.9899               242.8058               247.8265
 Red. masses --      1.1499                 3.6985                 1.2789
 Frc consts  --      0.0358                 0.1285                 0.0463
 IR Inten    --     45.6974                13.9555                 2.0632

                     19                     20                     21
                      A                      A                      A
 Frequencies --    259.0458               277.5192               297.0525
 Red. masses --      1.0546                 2.8992                 3.5091
 Frc consts  --      0.0417                 0.1316                 0.1824
 IR Inten    --     56.2965                 0.9900                 1.9328

                     22                     23                     24
                      A                      A                      A
 Frequencies --    341.6889               358.3832               416.6555
 Red. masses --      4.7929                 2.8548                 2.9958
 Frc consts  --      0.3297                 0.2160                 0.3064
 IR Inten    --     14.1179                13.7787                 1.3345

                     25                     26                     27
                      A                      A                      A
 Frequencies --    430.2191               436.2565               527.1633
 Red. masses --      3.1665                 1.0460                 2.5281
 Frc consts  --      0.3453                 0.1173                 0.4139
 IR Inten    --      0.5179                22.7597                 3.0170

                     28                     29                     30
                      A                      A                      A
 Frequencies --    565.5122               585.2744               618.9259
 Red. masses --      1.3621                 2.2508                 4.0556
 Frc consts  --      0.2566                 0.4543                 0.9153
 IR Inten    --     27.1443                 2.8710                10.6391

                     31                     32                     33
                      A                      A                      A
 Frequencies --    642.6137               660.3400               713.7678
 Red. masses --      5.2142                 3.5030                 2.0289
 Frc consts  --      1.2686                 0.9000                 0.6090
 IR Inten    --     14.1808                 2.8930                33.3926

                     34                     35                     36
                      A                      A                      A
 Frequencies --    750.6581               781.1590               837.3800
 Red. masses --      1.0502                 2.5813                 1.4948
 Frc consts  --      0.3487                 0.9280                 0.6176
 IR Inten    --    119.8918                 7.9397                33.8265

                     37                     38                     39
                      A                      A                      A
 Frequencies --    872.6611               899.7451               902.7338
 Red. masses --      2.0580                 1.0644                 1.7636
 Frc consts  --      0.9234                 0.5077                 0.8468
 IR Inten    --      5.0070                67.6399                21.5406

                     40                     41                     42
                      A                      A                      A
 Frequencies --    938.0404               963.6491               974.5814
 Red. masses --      3.1544                 1.9971                 1.9824
 Frc consts  --      1.6353                 1.0927                 1.1094
 IR Inten    --      4.9897                 3.6241                 3.1565

                     43                     44                     45
                      A                      A                      A
 Frequencies --    980.3741               993.6072              1033.9919
 Red. masses --      1.3083                 1.6011                 1.3824
 Frc consts  --      0.7409                 0.9313                 0.8708
 IR Inten    --      5.6358                 1.6363                 0.2897

                     46                     47                     48
                      A                      A                      A
 Frequencies --   1042.7748              1062.9434              1078.1788
 Red. masses --      3.6825                 2.0833                 1.7605
 Frc consts  --      2.3592                 1.3868                 1.2057
 IR Inten    --      2.8558                 6.3456                17.1444

                     49                     50                     51
                      A                      A                      A
 Frequencies --   1084.5742              1106.7211              1136.8733
 Red. masses --      2.1941                 1.8324                 1.2678
 Frc consts  --      1.5206                 1.3223                 0.9655
 IR Inten    --      3.2724                 8.3722                 5.3025

                     52                     53                     54
                      A                      A                      A
 Frequencies --   1141.4380              1180.7218              1206.2028
 Red. masses --      1.4980                 1.4247                 1.1703
 Frc consts  --      1.1499                 1.1703                 1.0032
 IR Inten    --      4.4189                 6.4057                 8.9874

                     55                     56                     57
                      A                      A                      A
 Frequencies --   1212.6566              1232.1460              1238.0289
 Red. masses --      1.6356                 1.9853                 1.0933
 Frc consts  --      1.4171                 1.7759                 0.9873
 IR Inten    --      4.0333                21.6301                25.4552

                     58                     59                     60
                      A                      A                      A
 Frequencies --   1256.9104              1270.5368              1284.3909
 Red. masses --      1.8018                 1.5735                 1.8902
 Frc consts  --      1.6771                 1.4965                 1.8372
 IR Inten    --     13.4489                 9.0326                29.8755

                     61                     62                     63
                      A                      A                      A
 Frequencies --   1298.8434              1308.7406              1340.1279
 Red. masses --      1.4405                 1.3605                 1.6392
 Frc consts  --      1.4318                 1.3730                 1.7345
 IR Inten    --      9.5282                 1.2919                 8.7269

                     64                     65                     66
                      A                      A                      A
 Frequencies --   1348.2566              1363.1750              1374.2867
 Red. masses --      1.4288                 2.7725                 1.6652
 Frc consts  --      1.5303                 3.0355                 1.8530
 IR Inten    --      0.4523                18.1984                13.1742

                     67                     68                     69
                      A                      A                      A
 Frequencies --   1391.9481              1430.7046              1453.9150
 Red. masses --      1.7231                 1.7983                 1.2137
 Frc consts  --      1.9670                 2.1687                 1.5116
 IR Inten    --      7.6030                44.7786                 4.9249

                     70                     71                     72
                      A                      A                      A
 Frequencies --   1478.4799              1484.5047              1491.8734
 Red. masses --      1.0480                 1.0855                 1.0694
 Frc consts  --      1.3497                 1.4095                 1.4023
 IR Inten    --     11.7259                 8.5628                 8.2332

                     73                     74                     75
                      A                      A                      A
 Frequencies --   1500.5313              1510.3813              1520.1795
 Red. masses --      1.0913                 2.2478                 1.1322
 Frc consts  --      1.4478                 3.0212                 1.5416
 IR Inten    --      7.5743                27.2526                 0.9284

                     76                     77                     78
                      A                      A                      A
 Frequencies --   1620.7618              1626.3773              1642.8024
 Red. masses --      2.1203                 1.0880                 1.0874
 Frc consts  --      3.2816                 1.6957                 1.7291
 IR Inten    --     40.9478               131.6544                13.3716

                     79                     80                     81
                      A                      A                      A
 Frequencies --   1674.8020              1696.3174              1712.9943
 Red. masses --      1.0953                 4.5877                 3.0513
 Frc consts  --      1.8102                 7.7779                 5.2753
 IR Inten    --      4.9844                11.1886                 6.8231

                     82                     83                     84
                      A                      A                      A
 Frequencies --   2933.8200              2962.9615              2967.3936
 Red. masses --      1.1009                 1.0755                 1.0786
 Frc consts  --      5.5832                 5.5631                 5.5955
 IR Inten    --   2799.8688                39.3285                24.6482

                     85                     86                     87
                      A                      A                      A
 Frequencies --   2973.2468              3086.6252              3086.8769
 Red. masses --      1.0551                 1.0811                 1.0660
 Frc consts  --      5.4955                 6.0684                 5.9848
 IR Inten    --     73.9152                29.3171                17.8319

                     88                     89                     90
                      A                      A                      A
 Frequencies --   3094.6821              3119.6745              3140.9829
 Red. masses --      1.0630                 1.0915                 1.1020
 Frc consts  --      5.9980                 6.2586                 6.4056
 IR Inten    --     19.4297                25.5557                18.9613

                     91                     92                     93
                      A                      A                      A
 Frequencies --   3142.4973              3159.3435              3208.7031
 Red. masses --      1.1048                 1.1049                 1.0922
 Frc consts  --      6.4279                 6.4978                 6.6256
 IR Inten    --      7.6078                24.5187                 0.4569

                     94                     95                     96
                      A                      A                      A
 Frequencies --   3244.3671              3250.9965              3259.2297
 Red. masses --      1.0927                 1.0951                 1.1006
 Frc consts  --      6.7765                 6.8194                 6.8880
 IR Inten    --      1.4715                 9.5966                 1.6424

                     97                     98                     99
                      A                      A                      A
 Frequencies --   3382.9456              3616.6019              3878.1002
 Red. masses --      1.0647                 1.0604                 1.0452
 Frc consts  --      7.1789                 8.1721                 9.2614
 IR Inten    --   1332.2768               635.8578                27.4378

                    100                    101                    102
                      A                      A                      A
 Frequencies --   3951.2464              3954.8740              3984.4375
 Red. masses --      1.0691                 1.0674                 1.0830
 Frc consts  --      9.8339                 9.8367                10.1300
 IR Inten    --    100.9521                94.6667               114.6771

 - Thermochemistry -
 -------------------
 Temperature   130.000 Kelvin.  Pressure   1.00000 Atm.
 Atom     1 has atomic number  6 and mass  12.00000

 Molecular mass:   217.15522 amu.
 Principal axes and moments of inertia in atomic units:
                           1         2         3
     Eigenvalues --  2247.319629565.74722**********
           X            1.00000   0.00075   0.00002
           Y           -0.00075   0.99998   0.00652
           Z           -0.00001  -0.00652   0.99998
 This molecule is an asymmetric top.
 Rotational symmetry number  1.
 Warning -- assumption of classical behavior for rotation
           may cause significant error
 Rotational temperatures (Kelvin)      0.03854     0.00905     0.00809
 Rotational constants (GHZ):           0.80306     0.18867     0.16861
 Zero-point vibrational energy     827908.3 (Joules/Mol)
                                  197.87484 (Kcal/Mol)
 Warning -- explicit consideration of  19 degrees of freedom as
           vibrations may cause significant error
 Vibrational temperatures:     14.47    19.67    28.47    39.66    43.50
          (Kelvin)             56.45    71.22   138.48   143.20   175.53
                              230.11   245.04   269.17   275.79   308.32
                              330.90   349.34   356.57   372.71   399.29
                              427.39   491.61   515.63   599.47   618.99
                              627.68   758.47   813.65   842.08   890.50
                              924.58   950.08  1026.95  1080.03  1123.91
                             1204.80  1255.56  1294.53  1298.83  1349.63
                             1386.48  1402.21  1410.54  1429.58  1487.68
                             1500.32  1529.34  1551.26  1560.46  1592.32
                             1635.71  1642.27  1698.80  1735.46  1744.74
                             1772.78  1781.25  1808.41  1828.02  1847.95
                             1868.75  1882.99  1928.15  1939.84  1961.30
                             1977.29  2002.70  2058.46  2091.86  2127.20
                             2135.87  2146.47  2158.93  2173.10  2187.20
                             2331.91  2339.99  2363.63  2409.67  2440.62
                             2464.62  4221.11  4263.04  4269.42  4277.84
                             4440.97  4441.33  4452.56  4488.52  4519.17
                             4521.35  4545.59  4616.61  4667.92  4677.46
                             4689.30  4867.30  5203.48  5579.72  5684.96
                             5690.18  5732.72

 Zero-point correction=                           0.315334 (Hartree/Particle)
 Thermal correction to Energy=                    0.320907
 Thermal correction to Enthalpy=                  0.321318
 Thermal correction to Gibbs Free Energy=         0.297443
 Sum of electronic and zero-point Energies=           -728.272862
 Sum of electronic and thermal Energies=              -728.267289
 Sum of electronic and thermal Enthalpies=            -728.266878
 Sum of electronic and thermal Free Energies=         -728.290753

                     E (Thermal)             CV                S
                      KCal/Mol        Cal/Mol-Kelvin    Cal/Mol-Kelvin
 Total                  201.372             41.849            115.246
 Electronic               0.000              0.000              0.000
 Translational            0.388              2.981             37.906
 Rotational               0.388              2.981             31.323
 Vibrational            200.597             35.888             46.017
 Vibration     1          0.259              1.985              6.351
 Vibration     2          0.259              1.983              5.742
 Vibration     3          0.259              1.979              5.009
 Vibration     4          0.260              1.972              4.354
 Vibration     5          0.261              1.969              4.172
 Vibration     6          0.262              1.956              3.661
 Vibration     7          0.265              1.938              3.208
 Vibration     8          0.282              1.809              1.953
 Vibration     9          0.284              1.798              1.893
 Vibration    10          0.296              1.711              1.535
 Vibration    11          0.323              1.541              1.093
 Vibration    12          0.331              1.490              0.998
 Vibration    13          0.345              1.407              0.862
 Vibration    14          0.349              1.384              0.828
 Vibration    15          0.369              1.269              0.680
 Vibration    16          0.385              1.189              0.593
 Vibration    17          0.398              1.125              0.530
 Vibration    18          0.403              1.100              0.507
 Vibration    19          0.415              1.044              0.460

 Optimization completed on the basis of negligible forces.
    -- Stationary point found.
 Normal termination of Gaussian 16 at Mon Jul 12 14:01:33 2021.
