 Gaussian 16, Revision A.03,
 Gaussian 16:  ES64L-G16RevA.03 25-Dec-2016

 -----------------------------
 # wB97XD/aug-cc-pVDZ opt freq
 -----------------------------

 ----
 blah
 ----
 Symbolic Z-matrix:
 Charge =  1 Multiplicity = 1

 SCF Done:  E(RwB97XD) =  -728.585544280     A.U. after   14 cycles
 SCF Done:  E(RwB97XD) =  -728.586421400     A.U. after   14 cycles
 SCF Done:  E(RwB97XD) =  -728.586200986     A.U. after   15 cycles
 SCF Done:  E(RwB97XD) =  -728.586813855     A.U. after   13 cycles
 SCF Done:  E(RwB97XD) =  -728.587117159     A.U. after   15 cycles
 SCF Done:  E(RwB97XD) =  -728.586910022     A.U. after   14 cycles
 SCF Done:  E(RwB97XD) =  -728.587244609     A.U. after   14 cycles
 SCF Done:  E(RwB97XD) =  -728.587344954     A.U. after   11 cycles
 SCF Done:  E(RwB97XD) =  -728.587392378     A.U. after   13 cycles
 SCF Done:  E(RwB97XD) =  -728.587435207     A.U. after   11 cycles
 SCF Done:  E(RwB97XD) =  -728.587509905     A.U. after    8 cycles
 SCF Done:  E(RwB97XD) =  -728.587510758     A.U. after    9 cycles
 SCF Done:  E(RwB97XD) =  -728.587511036     A.U. after    9 cycles
 SCF Done:  E(RwB97XD) =  -728.587511052     A.U. after    7 cycles
 SCF Done:  E(RwB97XD) =  -728.587511014     A.U. after    8 cycles
 SCF Done:  E(RwB97XD) =  -728.587510971     A.U. after    8 cycles
 SCF Done:  E(RwB97XD) =  -728.587510963     A.U. after    8 cycles
 SCF Done:  E(RwB97XD) =  -728.587510981     A.U. after    7 cycles
 SCF Done:  E(RwB97XD) =  -728.587511009     A.U. after    7 cycles
 Optimization completed.
    -- Stationary point found.
 Normal termination of Gaussian 16 at Thu Jan 26 15:49:42 2023.

 ----------------------------------------------------------------------
 #N Geom=AllCheck Guess=TCheck SCRF=Check GenChk RwB97XD/Aug-CC-pVDZ Fr
 eq
 ----------------------------------------------------------------------

 Structure from the checkpoint file:  "/gscratch/scrubbed/gds001/Gau-22716.chk"
 ----
 blah
 ----
 Charge =  1 Multiplicity = 1

                         Standard orientation:
 ---------------------------------------------------------------------
 Center     Atomic      Atomic             Coordinates (Angstroms)
 Number     Number       Type             X           Y           Z
 ---------------------------------------------------------------------
      1          6           0       -3.336407    0.330334   -1.410172
      2          6           0       -2.418239   -0.439213   -0.425428
      3          7           0       -3.261152   -0.691030    0.732520
      4          6           0       -4.580962   -1.000907    0.188286
      5          6           0       -4.771451    0.043033   -0.911041
      6          6           0       -1.180588    0.339993   -0.049369
      7          6           0        0.046090    0.072228   -0.633809
      8          7           0        1.131333    0.801652   -0.322888
      9          6           0        1.095409    1.806130    0.563064
     10          6           0       -0.096867    2.120480    1.193451
     11          6           0       -1.236480    1.383572    0.883477
     12          6           0       -2.744551   -1.707977    1.629449
     13          1           0       -2.095945   -1.391969   -0.896870
     14          1           0       -3.116586    1.404403   -1.390058
     15          1           0       -3.168349   -0.015790   -2.436196
     16          1           0       -5.220240    0.952616   -0.496485
     17          1           0       -5.425900   -0.318282   -1.710949
     18          1           0       -4.601531   -2.025027   -0.237104
     19          1           0       -5.339215   -0.949189    0.978422
     20          1           0       -2.189840    1.592911    1.368595
     21          1           0        2.032326    2.327456    0.743295
     22          1           0        2.046449    0.567167   -0.791890
     23          1           0        0.198595   -0.725579   -1.358060
     24          1           0       -1.773236   -1.399948    2.039024
     25          1           0       -2.616835   -2.686404    1.124393
     26          1           0       -3.435576   -1.840422    2.469846
     27          1           0       -0.126147    2.931957    1.916854
     28          8           0        3.416816    0.163150   -1.497936
     29          1           0        4.113073   -0.400427   -1.080539
     30          1           0        3.781278    0.512275   -2.313450
     31          8           0        5.209282   -1.364830   -0.294363
     32          1           0        5.353255   -2.281951   -0.537144
     33          1           0        6.056363   -1.039804    0.065779
     34          8           0        7.568715   -0.407055    0.744184
     35          1           0        8.371264   -0.235665    0.244374
     36          1           0        7.851311   -0.568841    1.648211
 ---------------------------------------------------------------------

 SCF Done:  E(RwB97XD) =  -728.587511009     A.U. after    1 cycles

 The electronic state is 1-A.
 Alpha  occ. eigenvalues --  -19.39989 -19.39218 -19.38147 -14.67089 -14.54729
 Alpha  occ. eigenvalues --  -10.50576 -10.50202 -10.46714 -10.46318 -10.46238
 Alpha  occ. eigenvalues --  -10.44690 -10.41033 -10.40958 -10.40064 -10.38666
 Alpha  occ. eigenvalues --   -1.25452  -1.24456  -1.23670  -1.21924  -1.15234
 Alpha  occ. eigenvalues --   -1.07295  -1.04058  -0.98577  -0.94519  -0.89887
 Alpha  occ. eigenvalues --   -0.88274  -0.87040  -0.82185  -0.77948  -0.76783
 Alpha  occ. eigenvalues --   -0.75054  -0.74717  -0.74272  -0.73703  -0.72953
 Alpha  occ. eigenvalues --   -0.70110  -0.68292  -0.67955  -0.67220  -0.64055
 Alpha  occ. eigenvalues --   -0.63525  -0.62781  -0.61887  -0.61528  -0.59641
 Alpha  occ. eigenvalues --   -0.58998  -0.57132  -0.56563  -0.55654  -0.54774
 Alpha  occ. eigenvalues --   -0.53811  -0.53089  -0.52855  -0.52254  -0.51898
 Alpha  occ. eigenvalues --   -0.51611  -0.50272  -0.48414  -0.40791
 Alpha virt. eigenvalues --   -0.13487  -0.09985  -0.06516  -0.05057  -0.04637
 Alpha virt. eigenvalues --   -0.04006  -0.03435  -0.02981  -0.02430  -0.02370
 Alpha virt. eigenvalues --   -0.01892  -0.01328  -0.01007  -0.00836  -0.00294

 Mulliken charges:
               1
     1  C    0.927797
     2  C    0.779396
     3  N   -0.437358
     4  C    1.193475
     5  C    0.672530
     6  C    1.266574
     7  C    0.632795
     8  N   -0.062962
     9  C    0.750845
    10  C    0.189505
    11  C    1.134614
    12  C    0.843505
    13  H   -0.804642
    14  H   -0.441321
    15  H   -0.377932
    16  H   -0.329793
    17  H   -0.281413
    18  H   -0.379972
    19  H   -0.529895
    20  H   -0.963384
    21  H   -0.641967
    22  H    0.097103
    23  H   -0.832437
    24  H   -0.338953
    25  H   -0.167241
    26  H   -0.235517
    27  H   -0.584723
    28  O   -0.475293
    29  H    0.290389
    30  H    0.135515
    31  O   -0.377551
    32  H    0.133939
    33  H    0.235094
    34  O   -0.316984
    35  H    0.149895
    36  H    0.146368
 Sum of Mulliken charges =   1.00000

 Dipole moment (field-independent basis, Debye):
    X=              8.5676    Y=              1.0041    Z=             -0.0990  Tot=              8.6268
 Quadrupole moment (field-independent basis, Debye-Ang):
   XX=             21.7646   YY=            -75.7838   ZZ=            -77.6889
   XY=             -4.5351   XZ=              2.4231   YZ=              3.7399

  Exact polarizability: 189.924  13.771 140.819   0.536   9.588 135.359
 Approx polarizability: 181.738   7.640 159.798  -4.621  18.075 155.527

                      1                      2                      3
                      A                      A                      A
 Frequencies --      7.5627                13.2935                19.1857
 Red. masses --      4.7092                 4.6566                 3.6538
 Frc consts  --      0.0002                 0.0005                 0.0008
 IR Inten    --      0.1603                 0.3412                 0.0689

                      4                      5                      6
                      A                      A                      A
 Frequencies --     27.1434                34.7644                37.5383
 Red. masses --      3.9392                 2.7121                 4.6296
 Frc consts  --      0.0017                 0.0019                 0.0038
 IR Inten    --      1.2354                 0.0503                 2.0046

                      7                      8                      9
                      A                      A                      A
 Frequencies --     52.1171                96.7018                98.8039
 Red. masses --      6.6973                 1.1430                 2.7794
 Frc consts  --      0.0107                 0.0063                 0.0160
 IR Inten    --      3.2113                24.3514                 7.2308

                     10                     11                     12
                      A                      A                      A
 Frequencies --    109.4274               161.5330               171.4673
 Red. masses --      4.1521                 1.9143                 1.2383
 Frc consts  --      0.0293                 0.0294                 0.0215
 IR Inten    --      2.3872                 1.6589                21.6165

                     13                     14                     15
                      A                      A                      A
 Frequencies --    186.8955               187.6086               197.2712
 Red. masses --      3.0060                 2.5830                 1.3313
 Frc consts  --      0.0619                 0.0536                 0.0305
 IR Inten    --     64.0577                29.6996               245.5735

                     16                     17                     18
                      A                      A                      A
 Frequencies --    231.5587               239.5008               245.7941
 Red. masses --      1.3150                 2.9639                 1.1472
 Frc consts  --      0.0415                 0.1002                 0.0408
 IR Inten    --     57.8616                 7.8631                 2.2868

                     19                     20                     21
                      A                      A                      A
 Frequencies --    258.7302               267.3329               304.7636
 Red. masses --      1.0630                 2.8612                 4.2389
 Frc consts  --      0.0419                 0.1205                 0.2320
 IR Inten    --     59.6091                 6.0531                 5.0531

                     22                     23                     24
                      A                      A                      A
 Frequencies --    347.4489               359.4500               414.5305
 Red. masses --      5.0352                 2.7962                 2.9292
 Frc consts  --      0.3581                 0.2129                 0.2966
 IR Inten    --     18.9172                 6.0765                 2.0138

                     25                     26                     27
                      A                      A                      A
 Frequencies --    417.3591               438.7873               538.6068
 Red. masses --      3.1472                 1.0468                 2.0571
 Frc consts  --      0.3230                 0.1187                 0.3516
 IR Inten    --      2.5666                24.8599                 3.7189

                     28                     29                     30
                      A                      A                      A
 Frequencies --    569.3882               596.1439               636.5986
 Red. masses --      1.6105                 2.7306                 5.4522
 Frc consts  --      0.3076                 0.5717                 1.3018
 IR Inten    --     18.7037                 6.9683                30.0075

                     31                     32                     33
                      A                      A                      A
 Frequencies --    646.5061               666.4386               711.0993
 Red. masses --      3.1594                 4.3185                 1.9925
 Frc consts  --      0.7780                 1.1301                 0.5936
 IR Inten    --      2.5565                 2.0070                34.3055

                     34                     35                     36
                      A                      A                      A
 Frequencies --    753.5082               774.3592               839.3990
 Red. masses --      1.0504                 1.7929                 1.6196
 Frc consts  --      0.3514                 0.6334                 0.6724
 IR Inten    --    120.7828                 3.5081                32.6613

                     37                     38                     39
                      A                      A                      A
 Frequencies --    854.3029               905.3743               922.1341
 Red. masses --      1.9775                 1.0451                 1.6995
 Frc consts  --      0.8503                 0.5048                 0.8515
 IR Inten    --     10.0110                80.0544                11.5693

                     40                     41                     42
                      A                      A                      A
 Frequencies --    935.6633               948.0220               968.8309
 Red. masses --      3.4059                 1.5642                 2.1392
 Frc consts  --      1.7568                 0.8283                 1.1830
 IR Inten    --      3.7410                 7.5690                 1.9723

                     43                     44                     45
                      A                      A                      A
 Frequencies --    984.8030              1001.0569              1044.3908
 Red. masses --      1.4613                 1.8600                 3.4113
 Frc consts  --      0.8350                 1.0982                 2.1923
 IR Inten    --      2.5273                 1.1469                 2.1942

                     46                     47                     48
                      A                      A                      A
 Frequencies --   1044.9602              1061.5500              1080.4806
 Red. masses --      1.4792                 2.3179                 1.6864
 Frc consts  --      0.9516                 1.5390                 1.1600
 IR Inten    --      1.4664                 2.2658                17.1731

                     49                     50                     51
                      A                      A                      A
 Frequencies --   1085.5138              1111.4230              1136.5417
 Red. masses --      2.1232                 2.1783                 1.4378
 Frc consts  --      1.4740                 1.5854                 1.0943
 IR Inten    --      2.8676                10.7704                 9.2968

                     52                     53                     54
                      A                      A                      A
 Frequencies --   1138.3490              1197.5609              1206.3736
 Red. masses --      1.2988                 1.4873                 1.2731
 Frc consts  --      0.9916                 1.2567                 1.0916
 IR Inten    --      1.9080                10.2017                 5.8953

                     55                     56                     57
                      A                      A                      A
 Frequencies --   1219.8890              1237.5685              1243.3137
 Red. masses --      1.5990                 1.0871                 1.6131
 Frc consts  --      1.4020                 0.9810                 1.4691
 IR Inten    --      9.7507                33.0027                 8.0726

                     58                     59                     60
                      A                      A                      A
 Frequencies --   1257.3482              1271.7235              1291.7223
 Red. masses --      1.6528                 1.8546                 1.8056
 Frc consts  --      1.5395                 1.7672                 1.7751
 IR Inten    --      8.7218                19.7187                 8.5320

                     61                     62                     63
                      A                      A                      A
 Frequencies --   1304.5085              1322.4490              1330.0338
 Red. masses --      1.4605                 1.5771                 1.3576
 Frc consts  --      1.4644                 1.6250                 1.4150
 IR Inten    --     11.1157                14.5920                 4.6991

                     64                     65                     66
                      A                      A                      A
 Frequencies --   1348.1143              1354.9013              1378.7210
 Red. masses --      1.4902                 1.9611                 1.9023
 Frc consts  --      1.5957                 2.1211                 2.1305
 IR Inten    --      4.6028                 4.6724                25.6022

                     67                     68                     69
                      A                      A                      A
 Frequencies --   1390.0766              1440.4900              1453.6128
 Red. masses --      1.6454                 1.6498                 1.3546
 Frc consts  --      1.8732                 2.0169                 1.6864
 IR Inten    --     12.5760                11.2617                 2.8807

                     70                     71                     72
                      A                      A                      A
 Frequencies --   1478.5350              1484.0312              1489.1996
 Red. masses --      1.0455                 1.0714                 1.0811
 Frc consts  --      1.3465                 1.3902                 1.4126
 IR Inten    --     12.0160                 7.0587                 3.1434

                     73                     74                     75
                      A                      A                      A
 Frequencies --   1503.6433              1515.3092              1521.7257
 Red. masses --      1.0884                 1.9194                 1.2133
 Frc consts  --      1.4498                 2.5966                 1.6553
 IR Inten    --     10.8713                30.6947                 7.2640

                     76                     77                     78
                      A                      A                      A
 Frequencies --   1618.1658              1626.3738              1643.8332
 Red. masses --      2.0045                 1.1242                 1.1010
 Frc consts  --      3.0925                 1.7520                 1.7529
 IR Inten    --     61.6192               102.0918                13.9276

                     79                     80                     81
                      A                      A                      A
 Frequencies --   1675.7463              1699.9261              1713.9871
 Red. masses --      1.0944                 4.5479                 2.9163
 Frc consts  --      1.8107                 7.7433                 5.0478
 IR Inten    --      5.3432                 7.8632                 6.2129

                     82                     83                     84
                      A                      A                      A
 Frequencies --   2914.7734              2930.9067              2955.5841
 Red. masses --      1.1017                 1.0825                 1.0719
 Frc consts  --      5.5147                 5.4788                 5.5170
 IR Inten    --   2901.8408               123.3298                48.5852

                     85                     86                     87
                      A                      A                      A
 Frequencies --   2963.5403              3087.3779              3092.1043
 Red. masses --      1.0567                 1.0620                 1.0804
 Frc consts  --      5.4677                 5.9645                 6.0864
 IR Inten    --     99.7403                18.0540                29.2189

                     88                     89                     90
                      A                      A                      A
 Frequencies --   3101.8936              3123.0275              3137.1565
 Red. masses --      1.0645                 1.0900                 1.1055
 Frc consts  --      6.0343                 6.2637                 6.4102
 IR Inten    --     20.9394                22.4119                 3.0898

                     91                     92                     93
                      A                      A                      A
 Frequencies --   3146.7841              3160.2035              3222.9787
 Red. masses --      1.1017                 1.1063                 1.0920
 Frc consts  --      6.4277                 6.5099                 6.6833
 IR Inten    --     16.9555                23.4848                 1.2272

                     94                     95                     96
                      A                      A                      A
 Frequencies --   3239.2515              3244.7071              3260.7724
 Red. masses --      1.0954                 1.0934                 1.1000
 Frc consts  --      6.7719                 6.7823                 6.8909
 IR Inten    --      1.2390                 2.4614                 1.7564

                     97                     98                     99
                      A                      A                      A
 Frequencies --   3375.6610              3613.5437              3876.1093
 Red. masses --      1.0647                 1.0605                 1.0452
 Frc consts  --      7.1480                 8.1588                 9.2519
 IR Inten    --   1359.2214               638.0366                27.5443

                    100                    101                    102
                      A                      A                      A
 Frequencies --   3949.8769              3952.8621              3982.1342
 Red. masses --      1.0690                 1.0674                 1.0830
 Frc consts  --      9.8266                 9.8262                10.1181
 IR Inten    --    104.7231                94.2077               115.1394

 - Thermochemistry -
 -------------------
 Temperature   298.150 Kelvin.  Pressure   1.00000 Atm.
 Atom     1 has atomic number  6 and mass  12.00000

 Molecular mass:   217.15522 amu.
 Principal axes and moments of inertia in atomic units:
                           1         2         3
     Eigenvalues --  1661.69774********************
           X            1.00000   0.00102   0.00080
           Y           -0.00100   0.99951  -0.03113
           Z           -0.00084   0.03113   0.99952
 This molecule is an asymmetric top.
 Rotational symmetry number  1.
 Warning -- assumption of classical behavior for rotation
           may cause significant error
 Rotational temperatures (Kelvin)      0.05212     0.00765     0.00750
 Rotational constants (GHZ):           1.08608     0.15938     0.15629
 Zero-point vibrational energy     828008.1 (Joules/Mol)
                                  197.89869 (Kcal/Mol)
 Warning -- explicit consideration of  29 degrees of freedom as
           vibrations may cause significant error
 Vibrational temperatures:     10.88    19.13    27.60    39.05    50.02
          (Kelvin)             54.01    74.98   139.13   142.16   157.44
                              232.41   246.70   268.90   269.93   283.83
                              333.16   344.59   353.64   372.26   384.63
                              438.49   499.90   517.17   596.42   600.49
                              631.32   774.93   819.22   857.72   915.92
                              930.18   958.86  1023.11  1084.13  1114.13
                             1207.71  1229.15  1302.63  1326.75  1346.21
                             1363.99  1393.93  1416.91  1440.30  1502.65
                             1503.46  1527.33  1554.57  1561.81  1599.09
                             1635.23  1637.83  1723.02  1735.70  1755.15
                             1780.59  1788.85  1809.04  1829.73  1858.50
                             1876.90  1902.71  1913.62  1939.64  1949.40
                             1983.67  2000.01  2072.54  2091.42  2127.28
                             2135.19  2142.63  2163.41  2180.19  2189.42
                             2328.18  2339.99  2365.11  2411.03  2445.81
                             2466.05  4193.71  4216.92  4252.43  4263.87
                             4442.05  4448.85  4462.93  4493.34  4513.67
                             4527.52  4546.83  4637.15  4660.56  4668.41
                             4691.52  4856.82  5199.08  5576.86  5682.99
                             5687.29  5729.40

 Zero-point correction=                           0.315372 (Hartree/Particle)
 Thermal correction to Energy=                    0.336096
 Thermal correction to Enthalpy=                  0.337040
 Thermal correction to Gibbs Free Energy=         0.259689
 Sum of electronic and zero-point Energies=           -728.272139
 Sum of electronic and thermal Energies=              -728.251415
 Sum of electronic and thermal Enthalpies=            -728.250471
 Sum of electronic and thermal Free Energies=         -728.327822

                     E (Thermal)             CV                S
                      KCal/Mol        Cal/Mol-Kelvin    Cal/Mol-Kelvin
 Total                  210.903             70.963            162.798
 Electronic               0.000              0.000              0.000
 Translational            0.889              2.981             42.029
 Rotational               0.889              2.981             33.740
 Vibrational            209.126             65.002             87.029
 Vibration     1          0.593              1.987              8.566
 Vibration     2          0.593              1.987              7.445
 Vibration     3          0.593              1.986              6.717
 Vibration     4          0.593              1.984              6.028
 Vibration     5          0.594              1.983              5.537
 Vibration     6          0.594              1.982              5.385
 Vibration     7          0.596              1.977              4.735
 Vibration     8          0.603              1.952              3.520
 Vibration     9          0.604              1.950              3.478
 Vibration    10          0.606              1.942              3.279
 Vibration    11          0.622              1.890              2.532
 Vibration    12          0.626              1.878              2.419
 Vibration    13          0.632              1.858              2.258
 Vibration    14          0.632              1.857              2.251
 Vibration    15          0.637              1.844              2.158
 Vibration    16          0.653              1.793              1.867
 Vibration    17          0.657              1.780              1.807
 Vibration    18          0.660              1.770              1.761
 Vibration    19          0.668              1.748              1.670
 Vibration    20          0.672              1.733              1.613
 Vibration    21          0.696              1.665              1.391
 Vibration    22          0.725              1.580              1.178
 Vibration    23          0.734              1.556              1.124
 Vibration    24          0.778              1.439              0.911
 Vibration    25          0.780              1.433              0.901
 Vibration    26          0.799              1.386              0.830
 Vibration    27          0.894              1.165              0.568
 Vibration    28          0.925              1.097              0.505
 Vibration    29          0.954              1.040              0.456

                           ! Non-Optimized Parameters !
 Normal termination of Gaussian 16 at Thu Jan 26 16:27:45 2023.
