 Gaussian 16, Revision A.03,
 Gaussian 16:  ES64L-G16RevA.03 25-Dec-2016

 ---------------------------------------------
 # wB97XD/aug-cc-pVDZ opt freq temperature=180
 ---------------------------------------------

 --------
 Nicotine
 --------
 Symbolic Z-matrix:
 Charge =  1 Multiplicity = 1

 SCF Done:  E(RwB97XD) =  -728.588108166     A.U. after   14 cycles
 SCF Done:  E(RwB97XD) =  -728.588107940     A.U. after    8 cycles
 SCF Done:  E(RwB97XD) =  -728.588108177     A.U. after    9 cycles
 SCF Done:  E(RwB97XD) =  -728.588108182     A.U. after    8 cycles
 SCF Done:  E(RwB97XD) =  -728.588108174     A.U. after    8 cycles
 SCF Done:  E(RwB97XD) =  -728.588108185     A.U. after    8 cycles
 Optimization completed.
    -- Stationary point found.
 Normal termination of Gaussian 16 at Mon Nov 15 11:41:17 2021.

 ----------------------------------------------------------------------
 #N Geom=AllCheck Guess=TCheck SCRF=Check GenChk RwB97XD/Aug-CC-pVDZ Fr
 eq
 ----------------------------------------------------------------------

 Structure from the checkpoint file:  "/gscratch/scrubbed/gds001/Gau-12198.chk"
 --------
 Nicotine
 --------
 Charge =  1 Multiplicity = 1

                         Standard orientation:
 ---------------------------------------------------------------------
 Center     Atomic      Atomic             Coordinates (Angstroms)
 Number     Number       Type             X           Y           Z
 ---------------------------------------------------------------------
      1          6           0        1.775890    2.227768   -0.586600
      2          6           0        1.535195    0.930894   -0.121237
      3          6           0        0.252628    0.639892    0.320878
      4          7           0       -0.710459    1.573963    0.290181
      5          6           0       -0.500420    2.819550   -0.160465
      6          6           0        0.757087    3.178233   -0.612246
      7          6           0        2.612249   -0.134213   -0.130560
      8          7           0        2.284842   -1.231721    0.771204
      9          6           0        2.801888   -2.460253    0.173960
     10          6           0        2.479869   -2.277144   -1.302398
     11          6           0        2.794267   -0.789816   -1.532243
     12          8           0       -3.170287    1.032013    1.118675
     13          8           0       -4.991864   -0.014186   -0.494574
     14          1           0        2.316831   -3.333741    0.626425
     15          1           0        3.067687   -2.933229   -1.952637
     16          1           0        1.416480   -2.482621   -1.479376
     17          1           0        3.832020   -0.660453   -1.860171
     18          1           0        2.150643   -0.333924   -2.293133
     19          1           0        3.895537   -2.558959    0.325814
     20          1           0        3.559057    0.358529    0.164445
     21          1           0       -0.008269   -0.342221    0.708064
     22          1           0       -1.353330    3.493339   -0.139425
     23          1           0        0.933577    4.188666   -0.973328
     24          1           0        2.774522    2.497514   -0.932552
     25          6           0        2.693056   -1.009719    2.145634
     26          1           0       -1.673935    1.324882    0.636982
     27          1           0       -3.513647    1.067852    2.013397
     28          1           0       -3.872519    0.633366    0.549843
     29          1           0       -5.701280    0.511477   -0.870408
     30          1           0       -5.332171   -0.926584   -0.429858
     31          8           0       -5.911201   -2.602392   -0.310215
     32          1           0       -5.930015   -3.208909   -1.055224
     33          1           0       -6.587871   -2.911622    0.297852
     34          1           0        2.216765   -0.102702    2.542642
     35          1           0        3.789968   -0.894661    2.245521
     36          1           0        2.375831   -1.856327    2.766015
 ---------------------------------------------------------------------

 SCF Done:  E(RwB97XD) =  -728.588108185     A.U. after    1 cycles

 The electronic state is 1-A.
 Alpha  occ. eigenvalues --  -19.39907 -19.38984 -19.37998 -14.66869 -14.54839
 Alpha  occ. eigenvalues --  -10.50317 -10.49559 -10.46972 -10.46221 -10.46144
 Alpha  occ. eigenvalues --  -10.44863 -10.41295 -10.41281 -10.40317 -10.39093
 Alpha  occ. eigenvalues --   -1.25177  -1.24355  -1.23462  -1.21767  -1.15263
 Alpha  occ. eigenvalues --   -1.07383  -1.03679  -0.99014  -0.94667  -0.89825
 Alpha  occ. eigenvalues --   -0.88383  -0.87111  -0.81686  -0.78340  -0.77416
 Alpha  occ. eigenvalues --   -0.74812  -0.74635  -0.73586  -0.73536  -0.72925
 Alpha  occ. eigenvalues --   -0.69918  -0.68657  -0.68197  -0.66865  -0.63740
 Alpha  occ. eigenvalues --   -0.63340  -0.63298  -0.61868  -0.61439  -0.60303
 Alpha  occ. eigenvalues --   -0.58931  -0.57270  -0.56497  -0.55974  -0.54938
 Alpha  occ. eigenvalues --   -0.54115  -0.52865  -0.52751  -0.52196  -0.52119
 Alpha  occ. eigenvalues --   -0.51457  -0.50941  -0.48181  -0.40789
 Alpha virt. eigenvalues --   -0.13354  -0.09782  -0.06371  -0.05222  -0.04330
 Alpha virt. eigenvalues --   -0.04065  -0.03580  -0.02975  -0.02588  -0.02319
 Alpha virt. eigenvalues --   -0.01880  -0.01483  -0.00920  -0.00648  -0.00334

 Mulliken charges:
               1
     1  C    1.168772
     2  C    0.708596
     3  C    0.721280
     4  N    0.002211
     5  C    0.759629
     6  C    0.265026
     7  C    0.937617
     8  N   -0.398260
     9  C    1.170752
    10  C    0.590195
    11  C    0.959378
    12  O   -0.469594
    13  O   -0.381804
    14  H   -0.511610
    15  H   -0.264807
    16  H   -0.379746
    17  H   -0.365752
    18  H   -0.444245
    19  H   -0.459069
    20  H   -0.539198
    21  H   -0.980748
    22  H   -0.661223
    23  H   -0.559184
    24  H   -0.874984
    25  C    0.799674
    26  H    0.100231
    27  H    0.134141
    28  H    0.292833
    29  H    0.133510
    30  H    0.238226
    31  O   -0.317682
    32  H    0.146643
    33  H    0.149933
    34  H   -0.284109
    35  H   -0.170455
    36  H   -0.216177
 Sum of Mulliken charges =   1.00000

 Dipole moment (field-independent basis, Debye):
    X=             -5.6326    Y=              1.7156    Z=             -0.2631  Tot=              5.8940
 Quadrupole moment (field-independent basis, Debye-Ang):
   XX=             -8.0289   YY=            -53.7853   ZZ=            -81.6069
   XY=             16.5947   XZ=             -2.1195   YZ=             -0.4692

  Exact polarizability: 163.483 -13.874 170.463  -6.200  -7.047 129.477
 Approx polarizability: 174.989  -4.804 177.933  -9.323  -9.873 142.980

                      1                      2                      3
                      A                      A                      A
 Frequencies --      9.7405                11.1041                20.0796
 Red. masses --      4.1807                 4.9358                 3.3499
 Frc consts  --      0.0002                 0.0004                 0.0008
 IR Inten    --      0.5112                 0.9172                 0.3374

                      4                      5                      6
                      A                      A                      A
 Frequencies --     27.3091                33.1167                38.7716
 Red. masses --      3.0628                 4.9866                 4.2945
 Frc consts  --      0.0013                 0.0032                 0.0038
 IR Inten    --      0.5066                 1.0407                 1.3536

                      7                      8                      9
                      A                      A                      A
 Frequencies --     50.0842                96.0114               103.0149
 Red. masses --      6.5374                 3.7973                 1.0497
 Frc consts  --      0.0097                 0.0206                 0.0066
 IR Inten    --      2.4598                 2.0103                32.6772

                     10                     11                     12
                      A                      A                      A
 Frequencies --    120.5395               161.7342               174.9615
 Red. masses --      3.5993                 3.5192                 1.1981
 Frc consts  --      0.0308                 0.0542                 0.0216
 IR Inten    --      1.7321                 5.0910                23.0660

                     13                     14                     15
                      A                      A                      A
 Frequencies --    188.3505               200.7814               213.7642
 Red. masses --      3.3453                 1.2247                 1.6314
 Frc consts  --      0.0699                 0.0291                 0.0439
 IR Inten    --     58.3906               264.5003                 0.3615

                     16                     17                     18
                      A                      A                      A
 Frequencies --    232.6126               242.6254               246.6804
 Red. masses --      1.1625                 3.0657                 1.3841
 Frc consts  --      0.0371                 0.1063                 0.0496
 IR Inten    --     51.9766                15.9761                 9.6114

                     19                     20                     21
                      A                      A                      A
 Frequencies --    258.3796               278.0353               297.4705
 Red. masses --      1.0533                 2.8845                 3.4665
 Frc consts  --      0.0414                 0.1314                 0.1807
 IR Inten    --     63.0150                 1.3070                 2.0370

                     22                     23                     24
                      A                      A                      A
 Frequencies --    341.4384               357.0167               416.4743
 Red. masses --      4.7527                 2.8692                 2.9806
 Frc consts  --      0.3265                 0.2155                 0.3046
 IR Inten    --     16.3641                10.7365                 1.7558

                     25                     26                     27
                      A                      A                      A
 Frequencies --    430.1194               437.0408               525.9974
 Red. masses --      3.1698                 1.0484                 2.4796
 Frc consts  --      0.3455                 0.1180                 0.4042
 IR Inten    --      1.0332                23.9851                 1.4218

                     28                     29                     30
                      A                      A                      A
 Frequencies --    565.7688               585.0587               617.8614
 Red. masses --      1.3822                 2.2159                 3.9948
 Frc consts  --      0.2607                 0.4469                 0.8985
 IR Inten    --     25.3590                 2.3940                10.3558

                     31                     32                     33
                      A                      A                      A
 Frequencies --    643.4931               660.4395               713.8880
 Red. masses --      5.3965                 3.4620                 2.0281
 Frc consts  --      1.3166                 0.8897                 0.6090
 IR Inten    --     15.5994                 2.5402                34.8840

                     34                     35                     36
                      A                      A                      A
 Frequencies --    750.2623               780.8346               837.1413
 Red. masses --      1.0502                 2.6092                 1.4919
 Frc consts  --      0.3483                 0.9373                 0.6160
 IR Inten    --    122.2082                 7.1745                32.8600

                     37                     38                     39
                      A                      A                      A
 Frequencies --    873.0698               899.6191               901.8834
 Red. masses --      2.0572                 1.0449                 1.8225
 Frc consts  --      0.9239                 0.4983                 0.8734
 IR Inten    --      4.7385                81.6622                 6.9634

                     40                     41                     42
                      A                      A                      A
 Frequencies --    938.3235               963.8078               973.9624
 Red. masses --      3.1383                 2.0008                 1.9651
 Frc consts  --      1.6280                 1.0951                 1.0983
 IR Inten    --      5.2881                 3.5380                 3.4012

                     43                     44                     45
                      A                      A                      A
 Frequencies --    980.4929               992.9069              1033.8075
 Red. masses --      1.3087                 1.6023                 1.3856
 Frc consts  --      0.7413                 0.9307                 0.8725
 IR Inten    --      5.8298                 1.2206                 0.2562

                     46                     47                     48
                      A                      A                      A
 Frequencies --   1041.6908              1062.8235              1078.0695
 Red. masses --      3.4961                 2.0572                 1.7730
 Frc consts  --      2.2352                 1.3692                 1.2141
 IR Inten    --      2.4361                 6.4290                16.2358

                     49                     50                     51
                      A                      A                      A
 Frequencies --   1083.0198              1106.5645              1136.3775
 Red. masses --      2.2027                 1.8304                 1.2781
 Frc consts  --      1.5222                 1.3206                 0.9724
 IR Inten    --      3.6077                 8.2164                 6.3547

                     52                     53                     54
                      A                      A                      A
 Frequencies --   1139.9490              1179.8514              1203.9422
 Red. masses --      1.4916                 1.4279                 1.1712
 Frc consts  --      1.1420                 1.1711                 1.0002
 IR Inten    --      3.7052                 6.0494                10.0395

                     55                     56                     57
                      A                      A                      A
 Frequencies --   1211.8874              1231.4328              1237.7937
 Red. masses --      1.6232                 1.9794                 1.0937
 Frc consts  --      1.4046                 1.7685                 0.9873
 IR Inten    --      4.1409                13.6430                35.6626

                     58                     59                     60
                      A                      A                      A
 Frequencies --   1257.0131              1269.5594              1284.2603
 Red. masses --      1.8084                 1.5910                 1.8581
 Frc consts  --      1.6835                 1.5109                 1.8056
 IR Inten    --     11.2528                 9.7345                29.7135

                     61                     62                     63
                      A                      A                      A
 Frequencies --   1294.4866              1308.0467              1339.7671
 Red. masses --      1.4471                 1.3630                 1.6500
 Frc consts  --      1.4287                 1.3740                 1.7450
 IR Inten    --      8.3297                 1.2444                 8.9199

                     64                     65                     66
                      A                      A                      A
 Frequencies --   1347.6717              1362.1569              1374.1516
 Red. masses --      1.4277                 2.8411                 1.6644
 Frc consts  --      1.5278                 3.1059                 1.8518
 IR Inten    --      0.3922                17.5193                13.4281

                     67                     68                     69
                      A                      A                      A
 Frequencies --   1391.8504              1430.5098              1453.8389
 Red. masses --      1.7249                 1.7918                 1.2138
 Frc consts  --      1.9688                 2.1603                 1.5116
 IR Inten    --      9.1998                44.8608                 4.9287

                     70                     71                     72
                      A                      A                      A
 Frequencies --   1478.2379              1483.5161              1491.2575
 Red. masses --      1.0479                 1.0862                 1.0693
 Frc consts  --      1.3491                 1.4084                 1.4011
 IR Inten    --     11.0074                 8.2871                 8.7466

                     73                     74                     75
                      A                      A                      A
 Frequencies --   1499.8905              1509.5503              1520.5136
 Red. masses --      1.0918                 2.2779                 1.1267
 Frc consts  --      1.4472                 3.0583                 1.5348
 IR Inten    --      7.3384                26.2562                 1.1066

                     76                     77                     78
                      A                      A                      A
 Frequencies --   1618.5059              1626.6865              1644.0987
 Red. masses --      1.9442                 1.1220                 1.1080
 Frc consts  --      3.0006                 1.7492                 1.7646
 IR Inten    --     51.5021               121.3256                14.8865

                     79                     80                     81
                      A                      A                      A
 Frequencies --   1675.2823              1695.8535              1713.7345
 Red. masses --      1.1255                 4.4020                 2.9147
 Frc consts  --      1.8611                 7.4589                 5.0436
 IR Inten    --      6.8322                 8.7827                 9.0907

                     82                     83                     84
                      A                      A                      A
 Frequencies --   2934.1716              2964.0169              2968.1052
 Red. masses --      1.1008                 1.0763                 1.0773
 Frc consts  --      5.5837                 5.5713                 5.5918
 IR Inten    --   2784.1064                38.3189                24.8013

                     85                     86                     87
                      A                      A                      A
 Frequencies --   2973.7275              3085.4174              3087.0749
 Red. masses --      1.0553                 1.0644                 1.0829
 Frc consts  --      5.4985                 5.9703                 6.0802
 IR Inten    --     72.2590                16.0742                30.4263

                     88                     89                     90
                      A                      A                      A
 Frequencies --   3093.6856              3115.5757              3141.3198
 Red. masses --      1.0629                 1.0915                 1.1047
 Frc consts  --      5.9937                 6.2425                 6.4229
 IR Inten    --     19.4074                26.1585                 6.4749

                     91                     92                     93
                      A                      A                      A
 Frequencies --   3141.8446              3157.6398              3209.3066
 Red. masses --      1.1018                 1.1052                 1.0922
 Frc consts  --      6.4082                 6.4926                 6.6279
 IR Inten    --     19.5993                25.2072                 0.4482

                     94                     95                     96
                      A                      A                      A
 Frequencies --   3243.4385              3253.1119              3258.3673
 Red. masses --      1.0928                 1.0949                 1.1006
 Frc consts  --      6.7732                 6.8268                 6.8845
 IR Inten    --      1.5095                 9.5632                 1.5574

                     97                     98                     99
                      A                      A                      A
 Frequencies --   3381.7659              3617.1303              3877.7455
 Red. masses --      1.0647                 1.0604                 1.0452
 Frc consts  --      7.1739                 8.1746                 9.2598
 IR Inten    --   1305.2521               595.6813                26.4841

                    100                    101                    102
                      A                      A                      A
 Frequencies --   3951.0656              3954.1729              3983.8524
 Red. masses --      1.0691                 1.0674                 1.0829
 Frc consts  --      9.8328                 9.8329                10.1266
 IR Inten    --    104.1595                93.1095               113.4215

 - Thermochemistry -
 -------------------
 Temperature   180.000 Kelvin.  Pressure   1.00000 Atm.
 Atom     1 has atomic number  6 and mass  12.00000

 Molecular mass:   217.15522 amu.
 Principal axes and moments of inertia in atomic units:
                           1         2         3
     Eigenvalues --  3279.333097750.805619647.07085
           X            1.00000  -0.00170   0.00093
           Y            0.00170   1.00000  -0.00049
           Z           -0.00093   0.00049   1.00000
 This molecule is an asymmetric top.
 Rotational symmetry number  1.
 Warning -- assumption of classical behavior for rotation
           may cause significant error
 Rotational temperatures (Kelvin)      0.02641     0.01117     0.00898
 Rotational constants (GHZ):           0.55034     0.23285     0.18708
 Zero-point vibrational energy     827829.3 (Joules/Mol)
                                  197.85595 (Kcal/Mol)
 Warning -- explicit consideration of  23 degrees of freedom as
           vibrations may cause significant error
 Vibrational temperatures:     14.01    15.98    28.89    39.29    47.65
          (Kelvin)             55.78    72.06   138.14   148.22   173.43
                              232.70   251.73   270.99   288.88   307.56
                              334.68   349.08   354.92   371.75   400.03
                              427.99   491.25   513.67   599.21   618.85
                              628.80   756.79   814.02   841.77   888.96
                              925.84   950.23  1027.13  1079.46  1123.45
                             1204.46  1256.15  1294.35  1297.61  1350.04
                             1386.70  1401.31  1410.71  1428.57  1487.42
                             1498.76  1529.17  1551.10  1558.22  1592.10
                             1634.99  1640.13  1697.54  1732.20  1743.64
                             1771.76  1780.91  1808.56  1826.61  1847.76
                             1862.48  1881.99  1927.63  1939.00  1959.84
                             1977.10  2002.56  2058.18  2091.75  2126.85
                             2134.45  2145.59  2158.01  2171.91  2187.68
                             2328.67  2340.44  2365.49  2410.36  2439.95
                             2465.68  4221.62  4264.56  4270.44  4278.53
                             4439.23  4441.61  4451.12  4482.62  4519.66
                             4520.41  4543.14  4617.48  4666.58  4680.50
                             4688.06  4865.61  5204.24  5579.21  5684.70
                             5689.17  5731.88

 Zero-point correction=                           0.315304 (Hartree/Particle)
 Thermal correction to Energy=                    0.324542
 Thermal correction to Enthalpy=                  0.325112
 Thermal correction to Gibbs Free Energy=         0.287523
 Sum of electronic and zero-point Energies=           -728.272805
 Sum of electronic and thermal Energies=              -728.263566
 Sum of electronic and thermal Enthalpies=            -728.262996
 Sum of electronic and thermal Free Energies=         -728.300585

                     E (Thermal)             CV                S
                      KCal/Mol        Cal/Mol-Kelvin    Cal/Mol-Kelvin
 Total                  203.653             50.553            131.043
 Electronic               0.000              0.000              0.000
 Translational            0.537              2.981             39.522
 Rotational               0.537              2.981             32.356
 Vibrational            202.580             44.592             59.164
 Vibration     1          0.358              1.986              7.061
 Vibration     2          0.358              1.986              6.801
 Vibration     3          0.358              1.983              5.625
 Vibration     4          0.359              1.979              5.016
 Vibration     5          0.360              1.976              4.634
 Vibration     6          0.361              1.971              4.323
 Vibration     7          0.362              1.961              3.820
 Vibration     8          0.375              1.892              2.561
 Vibration     9          0.378              1.879              2.429
 Vibration    10          0.385              1.840              2.136
 Vibration    11          0.406              1.732              1.610
 Vibration    12          0.414              1.693              1.475
 Vibration    13          0.423              1.651              1.352
 Vibration    14          0.431              1.610              1.248
 Vibration    15          0.441              1.567              1.148
 Vibration    16          0.455              1.502              1.018
 Vibration    17          0.463              1.466              0.956
 Vibration    18          0.467              1.452              0.932
 Vibration    19          0.477              1.409              0.865
 Vibration    20          0.494              1.338              0.765
 Vibration    21          0.512              1.266              0.677
 Vibration    22          0.556              1.106              0.513
 Vibration    23          0.573              1.050              0.465

 Optimization completed.
    -- Stationary point found.
 Normal termination of Gaussian 16 at Mon Nov 15 12:22:07 2021.
