 Gaussian 16, Revision A.03,
 Gaussian 16:  ES64L-G16RevA.03 25-Dec-2016

 -----------------------------------------
 # wB97XD/aug-cc-pVDZ Temperature=130 Freq
 -----------------------------------------

 ----------------------------
 p-Pyr Nicotine, N anti, 3H2O
 ----------------------------
 Symbolic Z-matrix:
 Charge =  1 Multiplicity = 1

                         Standard orientation:
 ---------------------------------------------------------------------
 Center     Atomic      Atomic             Coordinates (Angstroms)
 Number     Number       Type             X           Y           Z
 ---------------------------------------------------------------------
      1          6           0        1.219251   -0.182655   -0.260004
      2          6           0        0.309587   -1.234086   -0.377687
      3          6           0        0.807235   -2.533738   -0.269963
      4          6           0        2.167361   -2.723953   -0.049549
      5          6           0        2.986402   -1.602939    0.065073
      6          7           0        2.523088   -0.353508   -0.036976
      7          6           0       -1.156549   -0.969146   -0.600427
      8          6           0       -1.538407    0.052820   -1.677538
      9          6           0       -2.924956    0.595388   -1.254460
     10          6           0       -3.180383    0.022439    0.146861
     11          7           0       -1.831829   -0.407033    0.629344
     12          8           0       -0.906594    2.020284    1.366305
     13          1           0       -3.816088   -0.870737    0.122553
     14          1           0       -3.717221    0.282127   -1.940913
     15          1           0       -2.920634    1.689179   -1.229389
     16          1           0       -0.801904    0.862980   -1.712674
     17          1           0       -1.547528   -0.424287   -2.661780
     18          1           0       -3.594422    0.740185    0.860625
     19          1           0       -1.669810   -1.922308   -0.791183
     20          1           0        0.888951    0.851597   -0.353471
     21          1           0        4.056529   -1.710887    0.243295
     22          1           0        2.591125   -3.722902    0.032264
     23          1           0        0.140707   -3.392392   -0.364536
     24          6           0       -1.860466   -1.312777    1.795423
     25          1           0       -1.335257    0.474568    0.918563
     26          1           0       -0.688080    2.316705    2.252785
     27          1           0       -0.337289    2.543386    0.750469
     28          1           0        3.194771    1.390844    0.132651
     29          8           0        3.133041    2.364508    0.224466
     30          1           0        4.007198    2.722619    0.058547
     31          8           0        0.666596    3.158105   -0.438606
     32          1           0        1.624233    3.018007   -0.253440
     33          1           0        0.573081    4.053485   -0.771159
     34          1           0       -2.393857   -0.818623    2.612989
     35          1           0       -0.834049   -1.532778    2.102901
     36          1           0       -2.378063   -2.238276    1.520628
 ---------------------------------------------------------------------

 SCF Done:  E(RwB97XD) =  -728.602310232     A.U. after   14 cycles

 The electronic state is 1-A.
 Alpha  occ. eigenvalues --  -19.39938 -19.38680 -19.37349 -14.68871 -14.58580
 Alpha  occ. eigenvalues --  -10.49862 -10.48376 -10.48330 -10.46577 -10.46374
 Alpha  occ. eigenvalues --  -10.45324 -10.45255 -10.43811 -10.43630 -10.43618
 Alpha  occ. eigenvalues --   -1.25799  -1.24326  -1.22816  -1.21274  -1.18304
 Alpha  occ. eigenvalues --   -1.06559  -1.04484  -1.01403  -0.96893  -0.94567
 Alpha  occ. eigenvalues --   -0.89129  -0.85973  -0.85263  -0.83179  -0.77982
 Alpha  occ. eigenvalues --   -0.75730  -0.75358  -0.74465  -0.73470  -0.72432
 Alpha  occ. eigenvalues --   -0.71836  -0.69641  -0.69540  -0.66530  -0.65729
 Alpha  occ. eigenvalues --   -0.65294  -0.63214  -0.62903  -0.62408  -0.62270
 Alpha  occ. eigenvalues --   -0.61248  -0.60969  -0.58985  -0.58726  -0.57822
 Alpha  occ. eigenvalues --   -0.57011  -0.56574  -0.55011  -0.53531  -0.52414
 Alpha  occ. eigenvalues --   -0.50816  -0.49913  -0.47946  -0.46922
 Alpha virt. eigenvalues --   -0.09794  -0.08802  -0.06883  -0.05820  -0.05103
 Alpha virt. eigenvalues --   -0.04877  -0.03459  -0.03282  -0.03249  -0.02845
 Alpha virt. eigenvalues --   -0.02526  -0.01557  -0.01311  -0.01104  -0.00620

 Mulliken charges:
               1
     1  C    1.128536
     2  C    0.707124
     3  C    1.282284
     4  C    0.574074
     5  C    0.199354
     6  N   -0.448911
     7  C    0.957141
     8  C    1.042124
     9  C    0.775051
    10  C    1.255491
    11  N   -1.095223
    12  O   -0.398526
    13  H   -0.481040
    14  H   -0.227453
    15  H   -0.262260
    16  H   -0.390096
    17  H   -0.482958
    18  H   -0.490272
    19  H   -0.921001
    20  H   -1.094902
    21  H   -0.573163
    22  H   -0.610560
    23  H   -0.897488
    24  C    1.120062
    25  H    0.228907
    26  H    0.165719
    27  H    0.263253
    28  H    0.250099
    29  O   -0.398709
    30  H    0.182220
    31  O   -0.492738
    32  H    0.290953
    33  H    0.191031
    34  H   -0.116679
    35  H   -0.110216
    36  H   -0.121229
 Sum of Mulliken charges =   1.00000

 Dipole moment (field-independent basis, Debye):
    X=             -3.0542    Y=             -1.3935    Z=              1.1566  Tot=              3.5507
 Quadrupole moment (field-independent basis, Debye-Ang):
   XX=            -52.7259   YY=            -59.1237   ZZ=            -81.0448
   XY=              3.8466   XZ=             -2.4648   YZ=             -2.2420

  Exact polarizability: 175.376  -7.488 158.150   4.173  -3.795 118.857
 Approx polarizability: 180.146  -1.986 176.507   5.708  -2.282 136.007

                      1                      2                      3
                      A                      A                      A
 Frequencies --     28.9626                35.4028                47.8212
 Red. masses --      3.2580                 3.6971                 2.7920
 Frc consts  --      0.0016                 0.0027                 0.0038
 IR Inten    --      0.0409                 1.6710                 0.4346

                      4                      5                      6
                      A                      A                      A
 Frequencies --     55.6826                59.0009                85.2964
 Red. masses --      3.3637                 3.9411                 5.1415
 Frc consts  --      0.0061                 0.0081                 0.0220
 IR Inten    --      2.2651                 0.4839                 4.6172

                      7                      8                      9
                      A                      A                      A
 Frequencies --     92.6641               104.0456               139.6274
 Red. masses --      4.8593                 4.1932                 2.2055
 Frc consts  --      0.0246                 0.0267                 0.0253
 IR Inten    --      4.9569                 3.7245                 1.0692

                     10                     11                     12
                      A                      A                      A
 Frequencies --    171.6766               185.0358               199.6909
 Red. masses --      1.9057                 2.1247                 3.9210
 Frc consts  --      0.0331                 0.0429                 0.0921
 IR Inten    --     36.2675                16.6806                38.6316

                     13                     14                     15
                      A                      A                      A
 Frequencies --    228.0219               229.1006               239.8948
 Red. masses --      2.6544                 1.3345                 1.1508
 Frc consts  --      0.0813                 0.0413                 0.0390
 IR Inten    --     19.9269                51.3873                11.9425

                     16                     17                     18
                      A                      A                      A
 Frequencies --    258.8133               272.8713               288.9177
 Red. masses --      2.7932                 3.9006                 1.1640
 Frc consts  --      0.1102                 0.1711                 0.0572
 IR Inten    --      3.0428                51.5059               131.5658

                     19                     20                     21
                      A                      A                      A
 Frequencies --    324.1369               328.9385               385.9908
 Red. masses --      4.6849                 4.3358                 2.9526
 Frc consts  --      0.2900                 0.2764                 0.2592
 IR Inten    --      8.1196                 3.0206                 0.3075

                     22                     23                     24
                      A                      A                      A
 Frequencies --    412.4825               430.6290               481.7330
 Red. masses --      2.9735                 2.8923                 1.0716
 Frc consts  --      0.2981                 0.3160                 0.1465
 IR Inten    --      1.7012                 6.8308                68.7697

                     25                     26                     27
                      A                      A                      A
 Frequencies --    530.6507               550.8254               566.3541
 Red. masses --      2.1250                 1.8108                 1.9117
 Frc consts  --      0.3525                 0.3237                 0.3613
 IR Inten    --      0.7332                19.8266                 1.4278

                     28                     29                     30
                      A                      A                      A
 Frequencies --    597.2536               633.2465               651.4497
 Red. masses --      1.1370                 3.6888                 5.3513
 Frc consts  --      0.2390                 0.8715                 1.3380
 IR Inten    --    121.8662                 1.8358                11.2736

                     31                     32                     33
                      A                      A                      A
 Frequencies --    679.7498               712.2290               735.4863
 Red. masses --      5.4079                 1.0866                 1.8308
 Frc consts  --      1.4722                 0.3248                 0.5835
 IR Inten    --      1.1919                20.2274                18.0983

                     34                     35                     36
                      A                      A                      A
 Frequencies --    783.5234               790.0144               815.6755
 Red. masses --      1.0947                 1.3312                 1.9647
 Frc consts  --      0.3960                 0.4895                 0.7701
 IR Inten    --    164.2717                 3.4203                26.6777

                     37                     38                     39
                      A                      A                      A
 Frequencies --    840.6485               916.8241               923.9005
 Red. masses --      1.7491                 3.2817                 1.1978
 Frc consts  --      0.7283                 1.6253                 0.6024
 IR Inten    --      6.9460                 8.2702               102.1294

                     40                     41                     42
                      A                      A                      A
 Frequencies --    933.6038               948.6020               980.9854
 Red. masses --      2.0820                 1.9003                 1.3426
 Frc consts  --      1.0692                 1.0075                 0.7613
 IR Inten    --      4.3466                 5.5563                 8.7389

                     43                     44                     45
                      A                      A                      A
 Frequencies --    988.2318              1001.1848              1031.1895
 Red. masses --      1.7303                 1.6217                 1.4382
 Frc consts  --      0.9956                 0.9578                 0.9010
 IR Inten    --      5.2310                 3.9688                 0.1943

                     46                     47                     48
                      A                      A                      A
 Frequencies --   1042.5275              1055.5535              1062.9456
 Red. masses --      1.8484                 4.8831                 2.7122
 Frc consts  --      1.1836                 3.2056                 1.8055
 IR Inten    --     14.5314                12.1602                 5.2138

                     49                     50                     51
                      A                      A                      A
 Frequencies --   1089.2895              1104.4965              1131.6716
 Red. masses --      2.2662                 2.2203                 1.3466
 Frc consts  --      1.5843                 1.5958                 1.0161
 IR Inten    --      2.6733                 2.4400                 3.2222

                     52                     53                     54
                      A                      A                      A
 Frequencies --   1155.2876              1156.8743              1212.1873
 Red. masses --      1.5185                 2.4125                 1.7353
 Frc consts  --      1.1941                 1.9023                 1.5023
 IR Inten    --      5.1591                19.0395                 1.4446

                     55                     56                     57
                      A                      A                      A
 Frequencies --   1224.2494              1236.2815              1247.7266
 Red. masses --      1.4846                 1.6209                 1.3194
 Frc consts  --      1.3110                 1.4596                 1.2103
 IR Inten    --      8.3099                 2.9078                11.4522

                     58                     59                     60
                      A                      A                      A
 Frequencies --   1269.6868              1286.4614              1298.6024
 Red. masses --      1.5530                 1.2046                 1.5161
 Frc consts  --      1.4751                 1.1746                 1.5064
 IR Inten    --      2.1210                 3.2197                 0.9962

                     61                     62                     63
                      A                      A                      A
 Frequencies --   1316.6679              1338.2316              1371.3370
 Red. masses --      3.5341                 1.3893                 1.2572
 Frc consts  --      3.6098                 1.4659                 1.3930
 IR Inten    --      1.0259                 1.2504                 0.6262

                     64                     65                     66
                      A                      A                      A
 Frequencies --   1380.2656              1388.3575              1409.4003
 Red. masses --      1.4685                 1.4052                 1.5345
 Frc consts  --      1.6483                 1.5958                 1.7959
 IR Inten    --      2.9858                 5.5138                 2.2846

                     67                     68                     69
                      A                      A                      A
 Frequencies --   1453.0797              1480.1082              1481.9306
 Red. masses --      1.1830                 1.2777                 1.6212
 Frc consts  --      1.4717                 1.6492                 2.0977
 IR Inten    --      2.3992                 7.9568                21.0335

                     70                     71                     72
                      A                      A                      A
 Frequencies --   1486.5554              1490.4258              1497.6466
 Red. masses --      1.0512                 1.0800                 1.1326
 Frc consts  --      1.3686                 1.4135                 1.4967
 IR Inten    --      4.5260                 6.5140                46.4195

                     73                     74                     75
                      A                      A                      A
 Frequencies --   1505.7949              1520.0399              1540.1135
 Red. masses --      1.1223                 1.1093                 2.2460
 Frc consts  --      1.4993                 1.5101                 3.1388
 IR Inten    --     34.7977                 4.4856                 7.1868

                     76                     77                     78
                      A                      A                      A
 Frequencies --   1601.4881              1654.9456              1659.1246
 Red. masses --      1.1375                 1.2303                 1.6901
 Frc consts  --      1.7189                 1.9854                 2.7411
 IR Inten    --     19.6153               128.1957                11.1586

                     79                     80                     81
                      A                      A                      A
 Frequencies --   1670.1286              1686.3614              1703.8423
 Red. masses --      1.6804                 3.9713                 1.1235
 Frc consts  --      2.7616                 6.6540                 1.9217
 IR Inten    --     24.4494                34.5060                18.9030

                     82                     83                     84
                      A                      A                      A
 Frequencies --   2972.2154              3078.8773              3082.5398
 Red. masses --      1.0890                 1.0434                 1.0756
 Frc consts  --      5.6681                 5.8276                 6.0216
 IR Inten    --    989.2973                 4.6629                 1.3870

                     85                     86                     87
                      A                      A                      A
 Frequencies --   3101.7177              3106.3504              3117.3607
 Red. masses --      1.0635                 1.0631                 1.0633
 Frc consts  --      6.0284                 6.0443                 6.0882
 IR Inten    --      4.8336                 6.0052                 9.2155

                     88                     89                     90
                      A                      A                      A
 Frequencies --   3159.5261              3172.1778              3180.2013
 Red. masses --      1.1063                 1.1060                 1.1068
 Frc consts  --      6.5067                 6.5570                 6.5950
 IR Inten    --      0.9056                 3.1048                 0.5115

                     91                     92                     93
                      A                      A                      A
 Frequencies --   3183.0740              3192.0374              3200.3738
 Red. masses --      1.1070                 1.1071                 1.0917
 Frc consts  --      6.6086                 6.6465                 6.5883
 IR Inten    --      3.9221                 1.2273                 3.3457

                     94                     95                     96
                      A                      A                      A
 Frequencies --   3211.1474              3221.0726              3241.5293
 Red. masses --      1.0922                 1.0918                 1.0981
 Frc consts  --      6.6352                 6.6744                 6.7983
 IR Inten    --      4.9087                 6.2910                 1.6031

                     97                     98                     99
                      A                      A                      A
 Frequencies --   3344.3960              3449.7032              3536.3132
 Red. masses --      1.0657                 1.0637                 1.0623
 Frc consts  --      7.0229                 7.4581                 7.8267
 IR Inten    --    872.8819               702.3834               861.3300

                    100                    101                    102
                      A                      A                      A
 Frequencies --   3938.1634              3944.1432              3955.7598
 Red. masses --      1.0668                 1.0676                 1.0686
 Frc consts  --      9.7485                 9.7854                 9.8523
 IR Inten    --    104.4291                95.9264               145.9879

 - Thermochemistry -
 -------------------
 Temperature   130.000 Kelvin.  Pressure   1.00000 Atm.
 Atom     1 has atomic number  6 and mass  12.00000

 Molecular mass:   217.15522 amu.
 Principal axes and moments of inertia in atomic units:
                           1         2         3
     Eigenvalues --  2999.784943980.023615718.10636
           X            0.99941   0.03422  -0.00033
           Y           -0.03422   0.99936  -0.01066
           Z           -0.00004   0.01067   0.99994
 This molecule is an asymmetric top.
 Rotational symmetry number  1.
 Warning -- assumption of classical behavior for rotation
           may cause significant error
 Rotational temperatures (Kelvin)      0.02887     0.02176     0.01515
 Rotational constants (GHZ):           0.60162     0.45345     0.31562
 Zero-point vibrational energy     839159.0 (Joules/Mol)
                                  200.56382 (Kcal/Mol)
 Warning -- explicit consideration of  16 degrees of freedom as
           vibrations may cause significant error
 Vibrational temperatures:     41.67    50.94    68.80    80.11    84.89
          (Kelvin)            122.72   133.32   149.70   200.89   247.00
                              266.23   287.31   328.07   329.62   345.16
                              372.37   392.60   415.69   466.36   473.27
                              555.35   593.47   619.58   693.11   763.49
                              792.51   814.86   859.31   911.10   937.29
                              978.01  1024.74  1058.20  1127.32  1136.65
                             1173.58  1209.51  1319.11  1329.29  1343.25
                             1364.83  1411.42  1421.85  1440.48  1483.65
                             1499.96  1518.71  1529.34  1567.24  1589.12
                             1628.22  1662.20  1664.48  1744.07  1761.42
                             1778.73  1795.20  1826.80  1850.93  1868.40
                             1894.39  1925.42  1973.05  1985.89  1997.54
                             2027.81  2090.66  2129.55  2132.17  2138.82
                             2144.39  2154.78  2166.50  2187.00  2215.88
                             2304.18  2381.10  2387.11  2402.94  2426.30
                             2451.45  4276.36  4429.82  4435.09  4462.68
                             4469.35  4485.19  4545.85  4564.06  4575.60
                             4579.73  4592.63  4604.62  4620.12  4634.40
                             4663.84  4811.84  4963.35  5087.97  5666.14
                             5674.74  5691.46

 Zero-point correction=                           0.319619 (Hartree/Particle)
 Thermal correction to Energy=                    0.324333
 Thermal correction to Enthalpy=                  0.324744
 Thermal correction to Gibbs Free Energy=         0.304173
 Sum of electronic and zero-point Energies=           -728.282691
 Sum of electronic and thermal Energies=              -728.277978
 Sum of electronic and thermal Enthalpies=            -728.277566
 Sum of electronic and thermal Free Energies=         -728.298137

                     E (Thermal)             CV                S
                      KCal/Mol        Cal/Mol-Kelvin    Cal/Mol-Kelvin
 Total                  203.522             37.653             99.296
 Electronic               0.000              0.000              0.000
 Translational            0.388              2.981             37.906
 Rotational               0.388              2.981             30.116
 Vibrational            202.747             31.691             31.274
 Vibration     1          0.261              1.970              4.257
 Vibration     2          0.262              1.962              3.862
 Vibration     3          0.264              1.941              3.275
 Vibration     4          0.266              1.925              2.980
 Vibration     5          0.267              1.918              2.869
 Vibration     6          0.277              1.846              2.174
 Vibration     7          0.281              1.822              2.022
 Vibration     8          0.286              1.781              1.813
 Vibration     9          0.308              1.635              1.309
 Vibration    10          0.332              1.484              0.986
 Vibration    11          0.343              1.417              0.877
 Vibration    12          0.356              1.343              0.772
 Vibration    13          0.383              1.199              0.603
 Vibration    14          0.384              1.194              0.597
 Vibration    15          0.395              1.139              0.544
 Vibration    16          0.415              1.045              0.461

 Optimization completed.
    -- Stationary point found.
 Normal termination of Gaussian 16 at Thu Aug 27 11:17:53 2020.
