 Gaussian 16, Revision A.03,
 Gaussian 16:  ES64L-G16RevA.03 25-Dec-2016

 -----------------------------
 # wB97XD/aug-cc-pVDZ opt freq
 -----------------------------

 ----
 blah
 ----
 Symbolic Z-matrix:
 Charge =  1 Multiplicity = 1

 SCF Done:  E(RwB97XD) =  -728.585210143     A.U. after   14 cycles
 SCF Done:  E(RwB97XD) =  -728.585997069     A.U. after   14 cycles
 SCF Done:  E(RwB97XD) =  -728.586120629     A.U. after   15 cycles
 SCF Done:  E(RwB97XD) =  -728.586195170     A.U. after   15 cycles
 SCF Done:  E(RwB97XD) =  -728.586828217     A.U. after   15 cycles
 SCF Done:  E(RwB97XD) =  -728.585706597     A.U. after   15 cycles
 SCF Done:  E(RwB97XD) =  -728.587126116     A.U. after   12 cycles
 SCF Done:  E(RwB97XD) =  -728.587082909     A.U. after   14 cycles
 SCF Done:  E(RwB97XD) =  -728.587292767     A.U. after   15 cycles
 SCF Done:  E(RwB97XD) =  -728.587237587     A.U. after   13 cycles
 SCF Done:  E(RwB97XD) =  -728.587507655     A.U. after    9 cycles
 SCF Done:  E(RwB97XD) =  -728.587508097     A.U. after    9 cycles
 SCF Done:  E(RwB97XD) =  -728.587508352     A.U. after    9 cycles
 SCF Done:  E(RwB97XD) =  -728.587508403     A.U. after    8 cycles
 SCF Done:  E(RwB97XD) =  -728.587508447     A.U. after    9 cycles
 SCF Done:  E(RwB97XD) =  -728.587508467     A.U. after    8 cycles
 SCF Done:  E(RwB97XD) =  -728.587508471     A.U. after    8 cycles
 SCF Done:  E(RwB97XD) =  -728.587508468     A.U. after    8 cycles
 SCF Done:  E(RwB97XD) =  -728.587508463     A.U. after    7 cycles
 Optimization completed.
    -- Stationary point found.
 Normal termination of Gaussian 16 at Thu Jan 26 15:53:36 2023.

 ----------------------------------------------------------------------
 #N Geom=AllCheck Guess=TCheck SCRF=Check GenChk RwB97XD/Aug-CC-pVDZ Fr
 eq
 ----------------------------------------------------------------------

 Structure from the checkpoint file:  "/gscratch/scrubbed/gds001/Gau-17973.chk"
 ----
 blah
 ----
 Charge =  1 Multiplicity = 1

                         Standard orientation:
 ---------------------------------------------------------------------
 Center     Atomic      Atomic             Coordinates (Angstroms)
 Number     Number       Type             X           Y           Z
 ---------------------------------------------------------------------
      1          6           0        2.642138    1.669199   -0.827381
      2          6           0        2.363666    0.598562    0.259085
      3          7           0        3.580511   -0.196505    0.302494
      4          6           0        4.671923    0.760542    0.138303
      5          6           0        4.180925    1.679185   -0.979853
      6          6           0        1.157799   -0.254377   -0.055012
      7          6           0       -0.065215   -0.027987    0.553999
      8          7           0       -1.141008   -0.767965    0.235225
      9          6           0       -1.094410   -1.756354   -0.668184
     10          6           0        0.099938   -2.043543   -1.307593
     11          6           0        1.227487   -1.288342   -0.997568
     12          6           0        3.702892   -1.025399    1.487309
     13          1           0        2.184620    1.104414    1.231672
     14          1           0        2.151366    1.403419   -1.771266
     15          1           0        2.241550    2.640426   -0.515916
     16          1           0        4.470005    1.275729   -1.956705
     17          1           0        4.600932    2.686849   -0.896601
     18          1           0        4.836183    1.335170    1.072618
     19          1           0        5.603976    0.235932   -0.102491
     20          1           0        2.188557   -1.493604   -1.469139
     21          1           0       -2.022828   -2.292673   -0.848400
     22          1           0       -2.054177   -0.564134    0.721956
     23          1           0       -0.221046    0.740764    1.308321
     24          1           0        2.880432   -1.751692    1.533511
     25          1           0        3.693838   -0.426761    2.420130
     26          1           0        4.643297   -1.586840    1.446074
     27          1           0        0.140583   -2.849694   -2.036381
     28          8           0       -3.423321   -0.208245    1.455815
     29          1           0       -3.773058   -0.590824    2.262718
     30          1           0       -4.129500    0.366002    1.070922
     31          8           0       -5.243995    1.353720    0.341733
     32          1           0       -5.399997    2.255066    0.631563
     33          1           0       -6.087238    1.035982   -0.033551
     34          8           0       -7.592273    0.419945   -0.742915
     35          1           0       -8.391071    0.208907   -0.252346
     36          1           0       -7.879096    0.626568   -1.636417
 ---------------------------------------------------------------------

 SCF Done:  E(RwB97XD) =  -728.587508463     A.U. after    1 cycles

 The electronic state is 1-A.
 Alpha  occ. eigenvalues --  -19.39981 -19.39215 -19.38139 -14.67089 -14.54724
 Alpha  occ. eigenvalues --  -10.50577 -10.50203 -10.46713 -10.46316 -10.46239
 Alpha  occ. eigenvalues --  -10.44690 -10.41009 -10.40956 -10.40078 -10.38679
 Alpha  occ. eigenvalues --   -1.25451  -1.24448  -1.23666  -1.21918  -1.15232
 Alpha  occ. eigenvalues --   -1.07294  -1.04057  -0.98579  -0.94520  -0.89887
 Alpha  occ. eigenvalues --   -0.88274  -0.87032  -0.82186  -0.77953  -0.76784
 Alpha  occ. eigenvalues --   -0.75050  -0.74709  -0.74273  -0.73697  -0.72952
 Alpha  occ. eigenvalues --   -0.70108  -0.68295  -0.67953  -0.67219  -0.64050
 Alpha  occ. eigenvalues --   -0.63526  -0.62789  -0.61877  -0.61521  -0.59621
 Alpha  occ. eigenvalues --   -0.59002  -0.57139  -0.56562  -0.55647  -0.54766
 Alpha  occ. eigenvalues --   -0.53808  -0.53086  -0.52846  -0.52254  -0.51900
 Alpha  occ. eigenvalues --   -0.51607  -0.50282  -0.48418  -0.40786
 Alpha virt. eigenvalues --   -0.13488  -0.09985  -0.06513  -0.05060  -0.04636
 Alpha virt. eigenvalues --   -0.04052  -0.03340  -0.02982  -0.02519  -0.02364
 Alpha virt. eigenvalues --   -0.01854  -0.01387  -0.00987  -0.00702  -0.00323

 Mulliken charges:
               1
     1  C    0.928018
     2  C    0.793264
     3  N   -0.440166
     4  C    1.193387
     5  C    0.670891
     6  C    1.248126
     7  C    0.631843
     8  N   -0.063739
     9  C    0.762501
    10  C    0.171496
    11  C    1.154329
    12  C    0.839704
    13  H   -0.803596
    14  H   -0.441324
    15  H   -0.377609
    16  H   -0.330018
    17  H   -0.281592
    18  H   -0.379745
    19  H   -0.529205
    20  H   -0.962985
    21  H   -0.643210
    22  H    0.100071
    23  H   -0.838742
    24  H   -0.339742
    25  H   -0.166509
    26  H   -0.235180
    27  H   -0.583699
    28  O   -0.473474
    29  H    0.134860
    30  H    0.292313
    31  O   -0.378531
    32  H    0.134107
    33  H    0.234744
    34  O   -0.316781
    35  H    0.149808
    36  H    0.146384
 Sum of Mulliken charges =   1.00000

 Dipole moment (field-independent basis, Debye):
    X=             -8.6356    Y=             -0.8375    Z=             -0.1570  Tot=              8.6775
 Quadrupole moment (field-independent basis, Debye-Ang):
   XX=             22.0114   YY=            -75.2672   ZZ=            -78.2506
   XY=             -4.1588   XZ=              1.7902   YZ=              3.7854

  Exact polarizability: 188.806  14.909 143.421  -0.986   9.049 133.900
 Approx polarizability: 180.870   8.701 160.646  -5.882  17.615 155.535

                      1                      2                      3
                      A                      A                      A
 Frequencies --      7.2715                12.4358                18.0875
 Red. masses --      4.7501                 4.6463                 3.7015
 Frc consts  --      0.0001                 0.0004                 0.0007
 IR Inten    --      0.1783                 0.2694                 0.1785

                      4                      5                      6
                      A                      A                      A
 Frequencies --     28.5987                33.2195                40.1803
 Red. masses --      4.6805                 3.1511                 3.2992
 Frc consts  --      0.0023                 0.0020                 0.0031
 IR Inten    --      1.6087                 0.3935                 0.8666

                      7                      8                      9
                      A                      A                      A
 Frequencies --     51.8581                97.9119               102.2629
 Red. masses --      6.7367                 3.4080                 1.0590
 Frc consts  --      0.0107                 0.0192                 0.0065
 IR Inten    --      3.5736                 0.1807                31.6021

                     10                     11                     12
                      A                      A                      A
 Frequencies --    111.4382               160.5321               172.6740
 Red. masses --      4.1689                 1.9185                 1.2384
 Frc consts  --      0.0305                 0.0291                 0.0218
 IR Inten    --      2.4952                 1.6746                24.5118

                     13                     14                     15
                      A                      A                      A
 Frequencies --    184.7614               189.7350               198.8240
 Red. masses --      3.9088                 2.2081                 1.3055
 Frc consts  --      0.0786                 0.0468                 0.0304
 IR Inten    --     27.3039                65.6256               242.2117

                     16                     17                     18
                      A                      A                      A
 Frequencies --    231.3528               238.9324               247.4788
 Red. masses --      1.2370                 3.5789                 1.1356
 Frc consts  --      0.0390                 0.1204                 0.0410
 IR Inten    --     57.2709                11.8118                 2.3793

                     19                     20                     21
                      A                      A                      A
 Frequencies --    257.7989               267.4474               305.3673
 Red. masses --      1.0598                 2.8398                 4.2455
 Frc consts  --      0.0415                 0.1197                 0.2333
 IR Inten    --     61.8538                 1.8395                 5.5461

                     22                     23                     24
                      A                      A                      A
 Frequencies --    347.2784               359.3449               414.5895
 Red. masses --      5.0451                 2.8061                 2.9344
 Frc consts  --      0.3585                 0.2135                 0.2972
 IR Inten    --     18.0935                 6.8196                 1.6857

                     25                     26                     27
                      A                      A                      A
 Frequencies --    417.3749               439.2848               538.9248
 Red. masses --      3.1285                 1.0465                 2.0750
 Frc consts  --      0.3211                 0.1190                 0.3551
 IR Inten    --      1.7778                24.6007                 4.5744

                     28                     29                     30
                      A                      A                      A
 Frequencies --    568.7510               596.0596               636.7360
 Red. masses --      1.5946                 2.7804                 5.4171
 Frc consts  --      0.3039                 0.5820                 1.2940
 IR Inten    --     18.3208                 6.5345                30.7942

                     31                     32                     33
                      A                      A                      A
 Frequencies --    646.4475               666.7412               711.4749
 Red. masses --      3.1547                 4.3259                 1.9960
 Frc consts  --      0.7767                 1.1330                 0.5953
 IR Inten    --      2.4313                 1.9699                34.3249

                     34                     35                     36
                      A                      A                      A
 Frequencies --    752.7093               774.8234               839.0791
 Red. masses --      1.0502                 1.7919                 1.6297
 Frc consts  --      0.3506                 0.6338                 0.6760
 IR Inten    --    120.2814                 3.3798                31.5780

                     37                     38                     39
                      A                      A                      A
 Frequencies --    854.5437               905.0761               922.5298
 Red. masses --      1.9543                 1.0450                 1.7020
 Frc consts  --      0.8408                 0.5044                 0.8534
 IR Inten    --     10.8094                81.0882                11.2097

                     40                     41                     42
                      A                      A                      A
 Frequencies --    935.4870               948.2240               968.8871
 Red. masses --      3.3841                 1.5739                 2.1354
 Frc consts  --      1.7449                 0.8338                 1.1811
 IR Inten    --      3.8596                 7.5427                 2.5874

                     43                     44                     45
                      A                      A                      A
 Frequencies --    984.9969              1001.2617              1044.4206
 Red. masses --      1.4629                 1.8498                 3.8793
 Frc consts  --      0.8362                 1.0926                 2.4932
 IR Inten    --      2.2922                 0.8688                 2.1963

                     46                     47                     48
                      A                      A                      A
 Frequencies --   1046.0669              1061.6661              1080.3742
 Red. masses --      1.4063                 2.3232                 1.6852
 Frc consts  --      0.9067                 1.5428                 1.1589
 IR Inten    --      1.2439                 2.0314                17.1096

                     49                     50                     51
                      A                      A                      A
 Frequencies --   1085.8317              1111.6916              1137.0436
 Red. masses --      2.1301                 2.1778                 1.4104
 Frc consts  --      1.4797                 1.5858                 1.0743
 IR Inten    --      2.6995                10.7071                 9.8748

                     52                     53                     54
                      A                      A                      A
 Frequencies --   1138.3471              1197.5551              1206.7635
 Red. masses --      1.3281                 1.4878                 1.2693
 Frc consts  --      1.0139                 1.2572                 1.0891
 IR Inten    --      1.2931                10.5512                 6.5310

                     55                     56                     57
                      A                      A                      A
 Frequencies --   1219.9965              1237.2540              1243.6011
 Red. masses --      1.5995                 1.0899                 1.6187
 Frc consts  --      1.4026                 0.9830                 1.4750
 IR Inten    --      8.9646                28.9237                13.0865

                     58                     59                     60
                      A                      A                      A
 Frequencies --   1257.6106              1271.6057              1291.6638
 Red. masses --      1.6457                 1.8562                 1.8044
 Frc consts  --      1.5336                 1.7684                 1.7737
 IR Inten    --      8.0189                20.0840                 8.4930

                     61                     62                     63
                      A                      A                      A
 Frequencies --   1304.9058              1322.3390              1329.5320
 Red. masses --      1.4498                 1.5696                 1.3680
 Frc consts  --      1.4545                 1.6170                 1.4247
 IR Inten    --     11.1167                14.6473                 4.5552

                     64                     65                     66
                      A                      A                      A
 Frequencies --   1348.0053              1355.3870              1378.8353
 Red. masses --      1.4881                 1.9447                 1.9078
 Frc consts  --      1.5931                 2.1049                 2.1370
 IR Inten    --      4.8257                 4.8728                24.5990

                     67                     68                     69
                      A                      A                      A
 Frequencies --   1389.8860              1440.4084              1453.2574
 Red. masses --      1.6440                 1.6424                 1.3590
 Frc consts  --      1.8712                 2.0078                 1.6910
 IR Inten    --     12.0230                11.6377                 3.4707

                     70                     71                     72
                      A                      A                      A
 Frequencies --   1477.9646              1484.1374              1489.1967
 Red. masses --      1.0458                 1.0709                 1.0808
 Frc consts  --      1.3460                 1.3897                 1.4122
 IR Inten    --     12.1148                 6.9447                 2.9061

                     73                     74                     75
                      A                      A                      A
 Frequencies --   1503.4362              1515.3440              1521.5840
 Red. masses --      1.0883                 1.9148                 1.2147
 Frc consts  --      1.4493                 2.5906                 1.6570
 IR Inten    --     11.0654                30.5471                 7.5682

                     76                     77                     78
                      A                      A                      A
 Frequencies --   1618.4597              1626.3790              1643.7946
 Red. masses --      2.0217                 1.1203                 1.0989
 Frc consts  --      3.1201                 1.7459                 1.7495
 IR Inten    --     59.3157               104.6048                14.0602

                     79                     80                     81
                      A                      A                      A
 Frequencies --   1675.6922              1699.9855              1713.9567
 Red. masses --      1.0930                 4.5428                 2.9327
 Frc consts  --      1.8082                 7.7350                 5.0760
 IR Inten    --      4.7545                 7.6916                 6.2943

                     82                     83                     84
                      A                      A                      A
 Frequencies --   2914.0427              2930.5681              2956.9751
 Red. masses --      1.1017                 1.0825                 1.0717
 Frc consts  --      5.5121                 5.4773                 5.5210
 IR Inten    --   2912.1368               121.1928                45.5217

                     85                     86                     87
                      A                      A                      A
 Frequencies --   2964.1516              3086.9523              3091.5501
 Red. masses --      1.0568                 1.0623                 1.0805
 Frc consts  --      5.4707                 5.9644                 6.0847
 IR Inten    --     96.1390                18.8039                29.1571

                     88                     89                     90
                      A                      A                      A
 Frequencies --   3103.7332              3123.0167              3137.5701
 Red. masses --      1.0648                 1.0896                 1.1052
 Frc consts  --      6.0434                 6.2615                 6.4104
 IR Inten    --     20.1561                22.9538                 3.7917

                     91                     92                     93
                      A                      A                      A
 Frequencies --   3146.3613              3162.1367              3221.5776
 Red. masses --      1.1018                 1.1063                 1.0921
 Frc consts  --      6.4263                 6.5177                 6.6780
 IR Inten    --     16.8927                22.9725                 1.2506

                     94                     95                     96
                      A                      A                      A
 Frequencies --   3239.2917              3244.7629              3260.8811
 Red. masses --      1.0954                 1.0933                 1.1000
 Frc consts  --      6.7721                 6.7819                 6.8914
 IR Inten    --      1.2235                 2.3890                 1.7524

                     97                     98                     99
                      A                      A                      A
 Frequencies --   3374.8640              3613.7495              3876.6625
 Red. masses --      1.0647                 1.0605                 1.0452
 Frc consts  --      7.1446                 8.1597                 9.2546
 IR Inten    --   1363.8874               637.6218                27.5515

                    100                    101                    102
                      A                      A                      A
 Frequencies --   3950.6340              3952.9875              3982.7035
 Red. masses --      1.0690                 1.0674                 1.0830
 Frc consts  --      9.8301                 9.8271                10.1209
 IR Inten    --    105.4330                93.1030               115.1587

 - Thermochemistry -
 -------------------
 Temperature   298.150 Kelvin.  Pressure   1.00000 Atm.
 Atom     1 has atomic number  6 and mass  12.00000

 Molecular mass:   217.15522 amu.
 Principal axes and moments of inertia in atomic units:
                           1         2         3
     Eigenvalues --  1665.99433********************
           X            1.00000   0.00027   0.00170
           Y           -0.00024   0.99984  -0.01787
           Z           -0.00170   0.01787   0.99984
 This molecule is an asymmetric top.
 Rotational symmetry number  1.
 Warning -- assumption of classical behavior for rotation
           may cause significant error
 Rotational temperatures (Kelvin)      0.05199     0.00768     0.00741
 Rotational constants (GHZ):           1.08328     0.16001     0.15436
 Zero-point vibrational energy     828102.6 (Joules/Mol)
                                  197.92127 (Kcal/Mol)
 Warning -- explicit consideration of  29 degrees of freedom as
           vibrations may cause significant error
 Vibrational temperatures:     10.46    17.89    26.02    41.15    47.80
          (Kelvin)             57.81    74.61   140.87   147.13   160.33
                              230.97   248.44   265.83   272.99   286.06
                              332.87   343.77   356.07   370.92   384.80
                              439.36   499.66   517.02   596.50   600.51
                              632.03   775.39   818.31   857.60   916.12
                              930.09   959.29  1023.65  1082.98  1114.80
                             1207.25  1229.50  1302.20  1327.31  1345.96
                             1364.28  1394.01  1417.19  1440.59  1502.69
                             1505.06  1527.50  1554.42  1562.27  1599.48
                             1635.95  1637.83  1723.01  1736.26  1755.30
                             1780.13  1789.26  1809.42  1829.56  1858.42
                             1877.47  1902.55  1912.90  1939.48  1950.10
                             1983.84  1999.74  2072.43  2090.91  2126.46
                             2135.34  2142.62  2163.11  2180.24  2189.22
                             2328.60  2340.00  2365.05  2410.95  2445.90
                             2466.00  4192.66  4216.43  4254.43  4264.75
                             4441.44  4448.05  4465.58  4493.32  4514.26
                             4526.91  4549.61  4635.13  4660.62  4668.49
                             4691.68  4855.68  5199.38  5577.65  5684.08
                             5687.47  5730.22

 Zero-point correction=                           0.315408 (Hartree/Particle)
 Thermal correction to Energy=                    0.336115
 Thermal correction to Enthalpy=                  0.337059
 Thermal correction to Gibbs Free Energy=         0.259683
 Sum of electronic and zero-point Energies=           -728.272101
 Sum of electronic and thermal Energies=              -728.251393
 Sum of electronic and thermal Enthalpies=            -728.250449
 Sum of electronic and thermal Free Energies=         -728.327825

                     E (Thermal)             CV                S
                      KCal/Mol        Cal/Mol-Kelvin    Cal/Mol-Kelvin
 Total                  210.915             70.951            162.851
 Electronic               0.000              0.000              0.000
 Translational            0.889              2.981             42.029
 Rotational               0.889              2.981             33.751
 Vibrational            209.138             64.989             87.070
 Vibration     1          0.593              1.987              8.644
 Vibration     2          0.593              1.987              7.578
 Vibration     3          0.593              1.986              6.834
 Vibration     4          0.593              1.984              5.924
 Vibration     5          0.594              1.983              5.627
 Vibration     6          0.594              1.981              5.250
 Vibration     7          0.596              1.977              4.745
 Vibration     8          0.603              1.951              3.495
 Vibration     9          0.604              1.947              3.411
 Vibration    10          0.607              1.940              3.244
 Vibration    11          0.622              1.891              2.544
 Vibration    12          0.626              1.876              2.406
 Vibration    13          0.631              1.861              2.280
 Vibration    14          0.633              1.854              2.230
 Vibration    15          0.637              1.842              2.144
 Vibration    16          0.653              1.793              1.868
 Vibration    17          0.657              1.781              1.811
 Vibration    18          0.661              1.767              1.748
 Vibration    19          0.667              1.750              1.677
 Vibration    20          0.673              1.733              1.613
 Vibration    21          0.696              1.664              1.387
 Vibration    22          0.725              1.581              1.179
 Vibration    23          0.734              1.556              1.125
 Vibration    24          0.778              1.439              0.911
 Vibration    25          0.780              1.432              0.901
 Vibration    26          0.799              1.385              0.829
 Vibration    27          0.894              1.164              0.568
 Vibration    28          0.925              1.099              0.507
 Vibration    29          0.954              1.040              0.456

                           ! Non-Optimized Parameters !
 Normal termination of Gaussian 16 at Thu Jan 26 16:31:49 2023.
