 Gaussian 16, Revision A.03,
 Gaussian 16:  ES64L-G16RevA.03 25-Dec-2016

 ---------------------------------------------
 # wB97XD/aug-cc-pVDZ opt freq temperature=180
 ---------------------------------------------

 --------
 Nicotine
 --------
 Symbolic Z-matrix:
 Charge =  1 Multiplicity = 1

 SCF Done:  E(RwB97XD) =  -728.588115944     A.U. after   14 cycles
 SCF Done:  E(RwB97XD) =  -728.588115931     A.U. after    8 cycles
 SCF Done:  E(RwB97XD) =  -728.588115944     A.U. after    8 cycles
 Optimization completed on the basis of negligible forces.
    -- Stationary point found.
 Normal termination of Gaussian 16 at Mon Nov 15 11:30:58 2021.

 ----------------------------------------------------------------------
 #N Geom=AllCheck Guess=TCheck SCRF=Check GenChk RwB97XD/Aug-CC-pVDZ Fr
 eq
 ----------------------------------------------------------------------

 Structure from the checkpoint file:  "/gscratch/scrubbed/gds001/Gau-19578.chk"
 --------
 Nicotine
 --------
 Charge =  1 Multiplicity = 1

                         Standard orientation:
 ---------------------------------------------------------------------
 Center     Atomic      Atomic             Coordinates (Angstroms)
 Number     Number       Type             X           Y           Z
 ---------------------------------------------------------------------
      1          6           0       -1.700938    2.171523   -0.782539
      2          6           0       -1.481690    0.860202   -0.347956
      3          6           0       -0.238383    0.567553    0.193857
      4          7           0        0.703627    1.517680    0.298450
      5          6           0        0.508802    2.781530   -0.105587
      6          6           0       -0.706939    3.140419   -0.659980
      7          6           0       -2.562935   -0.197916   -0.424022
      8          7           0       -2.003179   -1.540463   -0.329077
      9          6           0       -2.972171   -2.371108    0.381191
     10          6           0       -3.473480   -1.440280    1.476240
     11          6           0       -3.587755   -0.092670    0.744827
     12          8           0        3.096670    0.965996    1.297963
     13          8           0        5.078541    0.099809   -0.230907
     14          1           0       -2.486159   -3.277872    0.761353
     15          1           0       -4.426516   -1.762743    1.908061
     16          1           0       -2.733154   -1.383839    2.284306
     17          1           0       -4.594630    0.039114    0.332470
     18          1           0       -3.387293    0.762582    1.400101
     19          1           0       -3.806189   -2.680961   -0.280058
     20          1           0       -3.093454   -0.051679   -1.385008
     21          1           0        0.011616   -0.432136    0.541226
     22          1           0        1.342229    3.467035    0.026281
     23          1           0       -0.867791    4.162806   -0.993697
     24          1           0       -2.662382    2.437411   -1.223737
     25          6           0       -1.554555   -2.085111   -1.596596
     26          1           0        1.639512    1.264678    0.711579
     27          1           0        3.856329    0.631434    0.762691
     28          1           0        3.364095    0.944565    2.218675
     29          1           0        5.803708    0.669792   -0.495640
     30          1           0        5.435368   -0.808465   -0.217628
     31          8           0        6.046515   -2.477045   -0.199269
     32          1           0        6.151924   -3.008970   -0.992490
     33          1           0        6.672561   -2.829448    0.438802
     34          1           0       -0.784470   -1.437630   -2.038137
     35          1           0       -2.380548   -2.185949   -2.327435
     36          1           0       -1.111436   -3.075185   -1.436222
 ---------------------------------------------------------------------

 SCF Done:  E(RwB97XD) =  -728.588115944     A.U. after    1 cycles

 The electronic state is 1-A.
 Alpha  occ. eigenvalues --  -19.39910 -19.38985 -19.38003 -14.66868 -14.54846
 Alpha  occ. eigenvalues --  -10.50317 -10.49556 -10.46971 -10.46220 -10.46144
 Alpha  occ. eigenvalues --  -10.44860 -10.41325 -10.41280 -10.40291 -10.39047
 Alpha  occ. eigenvalues --   -1.25177  -1.24358  -1.23463  -1.21771  -1.15268
 Alpha  occ. eigenvalues --   -1.07383  -1.03678  -0.99002  -0.94658  -0.89825
 Alpha  occ. eigenvalues --   -0.88380  -0.87124  -0.81684  -0.78325  -0.77407
 Alpha  occ. eigenvalues --   -0.74820  -0.74636  -0.73583  -0.73539  -0.72926
 Alpha  occ. eigenvalues --   -0.69914  -0.68657  -0.68198  -0.66861  -0.63730
 Alpha  occ. eigenvalues --   -0.63341  -0.63297  -0.61872  -0.61446  -0.60309
 Alpha  occ. eigenvalues --   -0.58946  -0.57250  -0.56492  -0.55977  -0.54946
 Alpha  occ. eigenvalues --   -0.54109  -0.52867  -0.52750  -0.52176  -0.52116
 Alpha  occ. eigenvalues --   -0.51462  -0.50906  -0.48176  -0.40798
 Alpha virt. eigenvalues --   -0.13354  -0.09778  -0.06375  -0.05199  -0.04415
 Alpha virt. eigenvalues --   -0.04043  -0.03437  -0.03048  -0.02613  -0.02322
 Alpha virt. eigenvalues --   -0.01820  -0.01336  -0.00955  -0.00689  -0.00581

 Mulliken charges:
               1
     1  C    1.146911
     2  C    0.717518
     3  C    0.727844
     4  N   -0.002762
     5  C    0.733634
     6  C    0.287824
     7  C    0.958036
     8  N   -0.405335
     9  C    1.160756
    10  C    0.610722
    11  C    0.939927
    12  O   -0.470773
    13  O   -0.381807
    14  H   -0.511992
    15  H   -0.265546
    16  H   -0.374736
    17  H   -0.363602
    18  H   -0.446828
    19  H   -0.457168
    20  H   -0.535314
    21  H   -0.978758
    22  H   -0.659257
    23  H   -0.559255
    24  H   -0.873146
    25  C    0.793005
    26  H    0.105218
    27  H    0.291901
    28  H    0.135104
    29  H    0.133578
    30  H    0.238912
    31  O   -0.318329
    32  H    0.146444
    33  H    0.149967
    34  H   -0.289191
    35  H   -0.166554
    36  H   -0.216948
 Sum of Mulliken charges =   1.00000

 Dipole moment (field-independent basis, Debye):
    X=              5.7618    Y=              1.7528    Z=             -0.1320  Tot=              6.0239
 Quadrupole moment (field-independent basis, Debye-Ang):
   XX=             -5.2150   YY=            -55.1248   ZZ=            -82.1886
   XY=            -16.2350   XZ=              3.4101   YZ=             -0.6230

  Exact polarizability: 167.089  12.569 170.547   3.350  -5.626 125.927
 Approx polarizability: 173.993   5.072 178.230  10.998  -8.838 143.698

                      1                      2                      3
                      A                      A                      A
 Frequencies --     10.2089                11.2225                22.5913
 Red. masses --      5.0002                 4.3989                 2.8812
 Frc consts  --      0.0003                 0.0003                 0.0009
 IR Inten    --      0.6230                 0.6355                 0.0703

                      4                      5                      6
                      A                      A                      A
 Frequencies --     27.6646                33.8284                37.2186
 Red. masses --      3.3424                 5.6819                 4.0057
 Frc consts  --      0.0015                 0.0038                 0.0033
 IR Inten    --      0.8225                 2.7245                 0.3021

                      7                      8                      9
                      A                      A                      A
 Frequencies --     50.4188                95.9024               102.9755
 Red. masses --      6.4260                 3.8357                 1.0472
 Frc consts  --      0.0096                 0.0208                 0.0065
 IR Inten    --      2.4041                 0.5689                32.5704

                     10                     11                     12
                      A                      A                      A
 Frequencies --    119.0144               157.8260               171.3286
 Red. masses --      3.6028                 2.9474                 1.2683
 Frc consts  --      0.0301                 0.0433                 0.0219
 IR Inten    --      3.4803                 9.9962                21.6264

                     13                     14                     15
                      A                      A                      A
 Frequencies --    187.2367               197.8105               213.7205
 Red. masses --      3.2540                 1.2517                 1.6815
 Frc consts  --      0.0672                 0.0289                 0.0453
 IR Inten    --     67.2021               254.4072                 0.6969

                     16                     17                     18
                      A                      A                      A
 Frequencies --    229.9592               242.8443               247.8323
 Red. masses --      1.1665                 3.5812                 1.2446
 Frc consts  --      0.0363                 0.1244                 0.0450
 IR Inten    --     52.3529                18.7256                 5.4617

                     19                     20                     21
                      A                      A                      A
 Frequencies --    256.4138               277.6755               297.2410
 Red. masses --      1.0681                 2.9142                 3.4812
 Frc consts  --      0.0414                 0.1324                 0.1812
 IR Inten    --     60.6654                 1.8542                 3.9184

                     22                     23                     24
                      A                      A                      A
 Frequencies --    341.2066               354.6385               416.2394
 Red. masses --      4.5924                 2.8563                 2.9781
 Frc consts  --      0.3150                 0.2117                 0.3040
 IR Inten    --     12.4881                14.0403                 1.6778

                     25                     26                     27
                      A                      A                      A
 Frequencies --    430.5467               436.4513               526.0949
 Red. masses --      3.1594                 1.0475                 2.5410
 Frc consts  --      0.3451                 0.1176                 0.4144
 IR Inten    --      0.5997                23.8828                 2.7592

                     28                     29                     30
                      A                      A                      A
 Frequencies --    565.0506               585.2708               617.6653
 Red. masses --      1.3508                 2.2416                 4.0746
 Frc consts  --      0.2541                 0.4524                 0.9159
 IR Inten    --     25.3961                 2.5271                10.3766

                     31                     32                     33
                      A                      A                      A
 Frequencies --    643.1638               660.7568               713.5130
 Red. masses --      5.1606                 3.5287                 2.0242
 Frc consts  --      1.2578                 0.9077                 0.6072
 IR Inten    --     13.5605                 2.8533                34.2203

                     34                     35                     36
                      A                      A                      A
 Frequencies --    750.5954               780.7383               837.2569
 Red. masses --      1.0500                 2.5992                 1.4922
 Frc consts  --      0.3486                 0.9335                 0.6163
 IR Inten    --    122.0192                 8.0515                33.0754

                     37                     38                     39
                      A                      A                      A
 Frequencies --    873.2865               899.1348               902.1582
 Red. masses --      2.0644                 1.0572                 1.7921
 Frc consts  --      0.9276                 0.5036                 0.8593
 IR Inten    --      5.1270                71.8806                17.2311

                     40                     41                     42
                      A                      A                      A
 Frequencies --    938.3635               963.6997               974.1434
 Red. masses --      3.1287                 1.9848                 1.9020
 Frc consts  --      1.6231                 1.0861                 1.0634
 IR Inten    --      5.2952                 3.6639                 3.8453

                     43                     44                     45
                      A                      A                      A
 Frequencies --    980.1296               992.6103              1033.3748
 Red. masses --      1.3281                 1.6267                 1.4085
 Frc consts  --      0.7517                 0.9443                 0.8862
 IR Inten    --      5.5990                 1.2117                 0.3546

                     46                     47                     48
                      A                      A                      A
 Frequencies --   1037.9183              1063.1744              1077.5107
 Red. masses --      2.7983                 2.0765                 2.3021
 Frc consts  --      1.7761                 1.3829                 1.5747
 IR Inten    --      2.4509                 6.4639                 2.5612

                     49                     50                     51
                      A                      A                      A
 Frequencies --   1078.6779              1106.3692              1134.6188
 Red. masses --      1.7658                 1.8368                 1.4319
 Frc consts  --      1.2106                 1.3247                 1.0860
 IR Inten    --     18.1699                 8.2263                10.8027

                     52                     53                     54
                      A                      A                      A
 Frequencies --   1137.9060              1179.7124              1197.6018
 Red. masses --      1.3459                 1.4266                 1.1812
 Frc consts  --      1.0268                 1.1698                 0.9982
 IR Inten    --      0.4934                 4.6894                13.6502

                     55                     56                     57
                      A                      A                      A
 Frequencies --   1212.2452              1230.8299              1237.9936
 Red. masses --      1.6158                 1.9525                 1.0893
 Frc consts  --      1.3990                 1.7428                 0.9836
 IR Inten    --      4.2374                17.3341                28.9614

                     58                     59                     60
                      A                      A                      A
 Frequencies --   1256.7486              1269.9629              1282.3339
 Red. masses --      1.7950                 1.5884                 1.5558
 Frc consts  --      1.6704                 1.5094                 1.5073
 IR Inten    --     13.9948                10.4493                22.9343

                     61                     62                     63
                      A                      A                      A
 Frequencies --   1286.7657              1308.4311              1340.3904
 Red. masses --      1.7132                 1.3611                 1.6698
 Frc consts  --      1.6713                 1.3729                 1.7676
 IR Inten    --     14.4169                 1.4131                 9.5512

                     64                     65                     66
                      A                      A                      A
 Frequencies --   1348.0060              1360.4181              1374.1742
 Red. masses --      1.4236                 3.0531                 1.6759
 Frc consts  --      1.5241                 3.3292                 1.8645
 IR Inten    --      0.3638                15.4657                15.0026

                     67                     68                     69
                      A                      A                      A
 Frequencies --   1391.9752              1430.2989              1453.7620
 Red. masses --      1.7269                 1.7932                 1.2152
 Frc consts  --      1.9714                 2.1613                 1.5132
 IR Inten    --      7.7895                45.4343                 5.0435

                     70                     71                     72
                      A                      A                      A
 Frequencies --   1478.7359              1484.0392              1491.4041
 Red. masses --      1.0474                 1.0851                 1.0703
 Frc consts  --      1.3494                 1.4080                 1.4026
 IR Inten    --     11.5593                 8.3955                 8.7213

                     73                     74                     75
                      A                      A                      A
 Frequencies --   1500.2361              1508.0743              1520.6980
 Red. masses --      1.0919                 2.3067                 1.1227
 Frc consts  --      1.4479                 3.0909                 1.5297
 IR Inten    --      7.5857                25.3418                 1.1594

                     76                     77                     78
                      A                      A                      A
 Frequencies --   1617.3336              1626.3143              1643.5635
 Red. masses --      1.9778                 1.1137                 1.1055
 Frc consts  --      3.0482                 1.7355                 1.7594
 IR Inten    --     48.1133               125.4638                14.3594

                     79                     80                     81
                      A                      A                      A
 Frequencies --   1674.9775              1694.5224              1713.4601
 Red. masses --      1.1235                 4.5372                 2.9101
 Frc consts  --      1.8571                 7.6759                 5.0339
 IR Inten    --      6.4203                 8.1349                 9.4845

                     82                     83                     84
                      A                      A                      A
 Frequencies --   2934.2313              2963.4758              2967.5567
 Red. masses --      1.1008                 1.0775                 1.0767
 Frc consts  --      5.5843                 5.5752                 5.5864
 IR Inten    --   2781.8060                35.8004                29.1218

                     85                     86                     87
                      A                      A                      A
 Frequencies --   2974.0344              3086.4650              3086.8680
 Red. masses --      1.0547                 1.0638                 1.0828
 Frc consts  --      5.4961                 5.9711                 6.0788
 IR Inten    --     73.6765                15.3066                31.3456

                     88                     89                     90
                      A                      A                      A
 Frequencies --   3092.6068              3119.7935              3140.1627
 Red. masses --      1.0637                 1.0915                 1.1029
 Frc consts  --      5.9938                 6.2592                 6.4073
 IR Inten    --     19.4958                25.9706                14.6645

                     91                     92                     93
                      A                      A                      A
 Frequencies --   3140.3520              3159.0203              3208.9865
 Red. masses --      1.1043                 1.1047                 1.0922
 Frc consts  --      6.4165                 6.4951                 6.6269
 IR Inten    --     12.6118                23.8486                 0.4437

                     94                     95                     96
                      A                      A                      A
 Frequencies --   3245.1602              3248.7062              3261.3039
 Red. masses --      1.0930                 1.0954                 1.1002
 Frc consts  --      6.7821                 6.8114                 6.8943
 IR Inten    --      1.3809                 9.7861                 2.0793

                     97                     98                     99
                      A                      A                      A
 Frequencies --   3380.6272              3617.2510              3876.6941
 Red. masses --      1.0647                 1.0604                 1.0452
 Frc consts  --      7.1691                 8.1749                 9.2546
 IR Inten    --   1310.3338               596.5183                26.5280

                    100                    101                    102
                      A                      A                      A
 Frequencies --   3949.2968              3953.2853              3982.7932
 Red. masses --      1.0691                 1.0674                 1.0830
 Frc consts  --      9.8243                 9.8284                10.1214
 IR Inten    --    103.2114                94.2813               113.5730

 - Thermochemistry -
 -------------------
 Temperature   180.000 Kelvin.  Pressure   1.00000 Atm.
 Atom     1 has atomic number  6 and mass  12.00000

 Molecular mass:   217.15522 amu.
 Principal axes and moments of inertia in atomic units:
                           1         2         3
     Eigenvalues --  3035.093597964.238429936.80279
           X            1.00000   0.00091  -0.00018
           Y           -0.00091   0.99998   0.00565
           Z            0.00018  -0.00565   0.99998
 This molecule is an asymmetric top.
 Rotational symmetry number  1.
 Warning -- assumption of classical behavior for rotation
           may cause significant error
 Rotational temperatures (Kelvin)      0.02854     0.01088     0.00872
 Rotational constants (GHZ):           0.59462     0.22661     0.18162
 Zero-point vibrational energy     827498.1 (Joules/Mol)
                                  197.77679 (Kcal/Mol)
 Warning -- explicit consideration of  23 degrees of freedom as
           vibrations may cause significant error
 Vibrational temperatures:     14.69    16.15    32.50    39.80    48.67
          (Kelvin)             53.55    72.54   137.98   148.16   171.24
                              227.08   246.50   269.39   284.61   307.50
                              330.86   349.40   356.58   368.92   399.51
                              427.66   490.92   510.25   598.88   619.46
                              627.96   756.93   812.98   842.07   888.68
                              925.37   950.68  1026.59  1079.94  1123.31
                             1204.63  1256.46  1293.65  1298.00  1350.10
                             1386.55  1401.58  1410.19  1428.14  1486.80
                             1493.33  1529.67  1550.30  1551.98  1591.82
                             1632.46  1637.19  1697.34  1723.08  1744.15
                             1770.89  1781.20  1808.18  1827.19  1844.99
                             1851.37  1882.54  1928.52  1939.48  1957.34
                             1977.13  2002.74  2057.88  2091.64  2127.57
                             2135.20  2145.80  2158.51  2169.78  2187.95
                             2326.98  2339.90  2364.72  2409.92  2438.04
                             2465.29  4221.70  4263.78  4269.65  4278.97
                             4440.73  4441.31  4449.57  4488.69  4517.99
                             4518.27  4545.13  4617.02  4669.06  4674.16
                             4692.29  4863.97  5204.42  5577.70  5682.16
                             5687.90  5730.35

 Zero-point correction=                           0.315177 (Hartree/Particle)
 Thermal correction to Energy=                    0.324433
 Thermal correction to Enthalpy=                  0.325003
 Thermal correction to Gibbs Free Energy=         0.287470
 Sum of electronic and zero-point Energies=           -728.272939
 Sum of electronic and thermal Energies=              -728.263683
 Sum of electronic and thermal Enthalpies=            -728.263113
 Sum of electronic and thermal Free Energies=         -728.300646

                     E (Thermal)             CV                S
                      KCal/Mol        Cal/Mol-Kelvin    Cal/Mol-Kelvin
 Total                  203.584             50.621            130.845
 Electronic               0.000              0.000              0.000
 Translational            0.537              2.981             39.522
 Rotational               0.537              2.981             32.336
 Vibrational            202.511             44.659             58.987
 Vibration     1          0.358              1.986              6.967
 Vibration     2          0.358              1.986              6.779
 Vibration     3          0.359              1.982              5.391
 Vibration     4          0.359              1.979              4.990
 Vibration     5          0.360              1.975              4.592
 Vibration     6          0.360              1.973              4.404
 Vibration     7          0.363              1.961              3.807
 Vibration     8          0.375              1.893              2.563
 Vibration     9          0.378              1.879              2.429
 Vibration    10          0.384              1.844              2.160
 Vibration    11          0.404              1.743              1.652
 Vibration    12          0.412              1.704              1.511
 Vibration    13          0.422              1.654              1.362
 Vibration    14          0.429              1.620              1.272
 Vibration    15          0.441              1.567              1.148
 Vibration    16          0.453              1.511              1.036
 Vibration    17          0.464              1.465              0.954
 Vibration    18          0.468              1.447              0.925
 Vibration    19          0.475              1.416              0.876
 Vibration    20          0.494              1.339              0.766
 Vibration    21          0.512              1.267              0.678
 Vibration    22          0.556              1.107              0.514
 Vibration    23          0.570              1.059              0.472

 Optimization completed on the basis of negligible forces.
    -- Stationary point found.
 Normal termination of Gaussian 16 at Mon Nov 15 12:11:23 2021.
