 Gaussian 16, Revision A.03,
 Gaussian 16:  ES64L-G16RevA.03 25-Dec-2016

 ---------------------------------------------
 # wB97XD/aug-cc-pVDZ opt freq Temperature=130
 ---------------------------------------------

 --------
 Nicotine
 --------
 Symbolic Z-matrix:
 Charge =  1 Multiplicity = 1

 SCF Done:  E(RwB97XD) =  -728.593374855     A.U. after   15 cycles
 SCF Done:  E(RwB97XD) =  -728.591927144     A.U. after   15 cycles
 SCF Done:  E(RwB97XD) =  -728.590949784     A.U. after   14 cycles
 SCF Done:  E(RwB97XD) =  -728.583567489     A.U. after   14 cycles
 SCF Done:  E(RwB97XD) =  -728.593397083     A.U. after   10 cycles
 SCF Done:  E(RwB97XD) =  -728.593866583     A.U. after   13 cycles
 SCF Done:  E(RwB97XD) =  -728.594259737     A.U. after   13 cycles
 SCF Done:  E(RwB97XD) =  -728.593992586     A.U. after   13 cycles
 SCF Done:  E(RwB97XD) =  -728.593950305     A.U. after   13 cycles
 SCF Done:  E(RwB97XD) =  -728.594361710     A.U. after   13 cycles
 SCF Done:  E(RwB97XD) =  -728.595450543     A.U. after    9 cycles
 SCF Done:  E(RwB97XD) =  -728.595450586     A.U. after    9 cycles
 SCF Done:  E(RwB97XD) =  -728.595450635     A.U. after    9 cycles
 SCF Done:  E(RwB97XD) =  -728.595450678     A.U. after    9 cycles
 SCF Done:  E(RwB97XD) =  -728.595450719     A.U. after    9 cycles
 SCF Done:  E(RwB97XD) =  -728.595450757     A.U. after    8 cycles
 SCF Done:  E(RwB97XD) =  -728.595450786     A.U. after    8 cycles
 SCF Done:  E(RwB97XD) =  -728.595450806     A.U. after    8 cycles
 SCF Done:  E(RwB97XD) =  -728.595450816     A.U. after    7 cycles
 Optimization completed.
    -- Stationary point found.
 Normal termination of Gaussian 16 at Mon Jul 12 17:32:16 2021.

 ----------------------------------------------------------------------
 #N Geom=AllCheck Guess=TCheck SCRF=Check GenChk RwB97XD/Aug-CC-pVDZ Fr
 eq
 ----------------------------------------------------------------------

 Structure from the checkpoint file:  "NicPyrNa3h5.chk"
 --------
 Nicotine
 --------
 Charge =  1 Multiplicity = 1

                         Standard orientation:
 ---------------------------------------------------------------------
 Center     Atomic      Atomic             Coordinates (Angstroms)
 Number     Number       Type             X           Y           Z
 ---------------------------------------------------------------------
      1          7           0        1.744977   -0.868026    0.673655
      2          6           0        1.946916    0.219550   -0.360768
      3          6           0        2.102500   -0.561722   -1.679816
      4          6           0        2.461696   -2.012784   -1.277188
      5          6           0        2.653861   -1.967410    0.237728
      6          6           0        0.853206    1.251348   -0.286677
      7          6           0       -0.458301    0.914055   -0.622418
      8          7           0       -1.497025    1.737487   -0.486906
      9          6           0       -1.254378    2.977894   -0.051255
     10          6           0        0.022643    3.433837    0.271340
     11          6           0        1.090978    2.548773    0.167639
     12          8           0       -0.706146   -2.024991    0.613305
     13          8           0       -2.932250   -0.651803    0.275499
     14          1           0        3.674443   -1.681870    0.522027
     15          1           0        3.364911   -2.377680   -1.774549
     16          1           0        1.641839   -2.693553   -1.529998
     17          1           0        1.176430   -0.532819   -2.261431
     18          1           0        2.880372   -0.092485   -2.289856
     19          1           0        2.380611   -2.888506    0.761669
     20          1           0        2.903647    0.686357   -0.089827
     21          1           0       -0.695203   -0.081452   -1.001412
     22          1           0       -2.119608    3.634234    0.046972
     23          1           0        0.169896    4.457067    0.611598
     24          1           0        2.099159    2.867141    0.437483
     25          6           0        1.934190   -0.425962    2.071003
     26          1           0        0.763639   -1.244431    0.603012
     27          1           0       -0.912645   -2.873478    1.010541
     28          1           0       -1.572482   -1.550668    0.502524
     29          1           0       -2.864220    0.258423   -0.049485
     30          1           0       -3.828214   -0.977609    0.080929
     31          8           0       -5.460482   -1.684113   -0.181586
     32          1           0       -5.876205   -1.841004   -1.033267
     33          1           0       -6.180143   -1.567167    0.444113
     34          1           0        1.768220   -1.278407    2.736092
     35          1           0        1.206969    0.359664    2.295312
     36          1           0        2.954077   -0.046203    2.195050
 ---------------------------------------------------------------------

 SCF Done:  E(RwB97XD) =  -728.595450816     A.U. after    1 cycles

 The electronic state is 1-A.
 Alpha  occ. eigenvalues --  -19.39117 -19.39023 -19.36162 -14.68640 -14.57665
 Alpha  occ. eigenvalues --  -10.49613 -10.48379 -10.47974 -10.46033 -10.45639
 Alpha  occ. eigenvalues --  -10.44761 -10.44671 -10.43745 -10.43625 -10.43016
 Alpha  occ. eigenvalues --   -1.25450  -1.23475  -1.23204  -1.20223  -1.17532
 Alpha  occ. eigenvalues --   -1.06103  -1.04301  -1.00942  -0.96480  -0.94244
 Alpha  occ. eigenvalues --   -0.88745  -0.85394  -0.85026  -0.82899  -0.77602
 Alpha  occ. eigenvalues --   -0.75006  -0.74701  -0.73761  -0.73082  -0.72112
 Alpha  occ. eigenvalues --   -0.71486  -0.69845  -0.68669  -0.66372  -0.65328
 Alpha  occ. eigenvalues --   -0.64872  -0.62913  -0.62454  -0.61951  -0.61547
 Alpha  occ. eigenvalues --   -0.60972  -0.60464  -0.58819  -0.58448  -0.57654
 Alpha  occ. eigenvalues --   -0.56293  -0.55613  -0.55062  -0.53019  -0.51868
 Alpha  occ. eigenvalues --   -0.49896  -0.49351  -0.46978  -0.46282
 Alpha virt. eigenvalues --   -0.09094  -0.08320  -0.06695  -0.05629  -0.04831
 Alpha virt. eigenvalues --   -0.04753  -0.03896  -0.03033  -0.02794  -0.02615
 Alpha virt. eigenvalues --   -0.02209  -0.01993  -0.00891  -0.00765  -0.00572

 Mulliken charges:
               1
     1  N   -0.925695
     2  C    0.851450
     3  C    1.142090
     4  C    0.710908
     5  C    1.283322
     6  C    1.124319
     7  C    0.566864
     8  N   -0.314142
     9  C    0.206845
    10  C    0.627840
    11  C    1.150473
    12  O   -0.423714
    13  O   -0.412048
    14  H   -0.432037
    15  H   -0.282456
    16  H   -0.293471
    17  H   -0.345583
    18  H   -0.424355
    19  H   -0.467938
    20  H   -0.863533
    21  H   -1.146110
    22  H   -0.549939
    23  H   -0.587424
    24  H   -0.874610
    25  C    1.057720
    26  H    0.217414
    27  H    0.165732
    28  H    0.276586
    29  H    0.182959
    30  H    0.235257
    31  O   -0.309608
    32  H    0.149814
    33  H    0.138583
    34  H   -0.148894
    35  H   -0.117601
    36  H   -0.169018
 Sum of Mulliken charges =   1.00000

 Dipole moment (field-independent basis, Debye):
    X=              1.9863    Y=             -2.1192    Z=              1.4859  Tot=              3.2626
 Quadrupole moment (field-independent basis, Debye-Ang):
   XX=            -26.3972   YY=            -62.1922   ZZ=            -81.4321
   XY=              2.7952   XZ=              5.0792   YZ=              1.2590

  Exact polarizability: 163.197 -11.926 166.748   2.331   7.728 121.927
 Approx polarizability: 176.651  -4.724 176.042   4.783  10.295 139.483

                      1                      2                      3
                      A                      A                      A
 Frequencies --     10.4724                20.9370                33.7655
 Red. masses --      3.5675                 4.0868                 4.0007
 Frc consts  --      0.0002                 0.0011                 0.0027
 IR Inten    --      1.3605                 4.6759                 1.9204

                      4                      5                      6
                      A                      A                      A
 Frequencies --     40.1881                61.0845                64.1379
 Red. masses --      4.6940                 4.2392                 3.8927
 Frc consts  --      0.0045                 0.0093                 0.0094
 IR Inten    --      2.8370                 1.8047                 0.4261

                      7                      8                      9
                      A                      A                      A
 Frequencies --     95.4264               100.5254               110.4561
 Red. masses --      1.2009                 2.9703                 3.6970
 Frc consts  --      0.0064                 0.0177                 0.0266
 IR Inten    --      5.5543                 8.5616                 4.9229

                     10                     11                     12
                      A                      A                      A
 Frequencies --    136.5233               165.5996               177.5210
 Red. masses --      5.3001                 1.7564                 1.2042
 Frc consts  --      0.0582                 0.0284                 0.0224
 IR Inten    --      2.2740                14.6730               139.5945

                     13                     14                     15
                      A                      A                      A
 Frequencies --    186.3811               201.1465               214.6714
 Red. masses --      1.2740                 3.4535                 3.2389
 Frc consts  --      0.0261                 0.0823                 0.0879
 IR Inten    --    168.7031                28.1225                10.9514

                     16                     17                     18
                      A                      A                      A
 Frequencies --    227.6139               231.5159               239.0006
 Red. masses --      1.3246                 1.1058                 2.7193
 Frc consts  --      0.0404                 0.0349                 0.0915
 IR Inten    --      3.0594                 3.8451                 3.7002

                     19                     20                     21
                      A                      A                      A
 Frequencies --    269.4139               327.9315               345.2632
 Red. masses --      3.3730                 4.1880                 4.8378
 Frc consts  --      0.1442                 0.2654                 0.3398
 IR Inten    --      0.5215                 1.3663                14.4391

                     22                     23                     24
                      A                      A                      A
 Frequencies --    388.3767               421.9737               435.2837
 Red. masses --      3.0155                 3.2031                 2.7958
 Frc consts  --      0.2680                 0.3360                 0.3121
 IR Inten    --      2.0843                 3.8212                10.5895

                     25                     26                     27
                      A                      A                      A
 Frequencies --    523.8710               543.7297               570.2567
 Red. masses --      1.3114                 2.4644                 2.5565
 Frc consts  --      0.2120                 0.4293                 0.4898
 IR Inten    --     48.3618                11.5203                22.4548

                     28                     29                     30
                      A                      A                      A
 Frequencies --    579.8143               627.1665               645.5307
 Red. masses --      1.1526                 3.0812                 4.4282
 Frc consts  --      0.2283                 0.7141                 1.0872
 IR Inten    --     65.2751                 9.9299                 5.1409

                     31                     32                     33
                      A                      A                      A
 Frequencies --    666.0933               686.2835               734.0237
 Red. masses --      3.6844                 1.1934                 1.1143
 Frc consts  --      0.9631                 0.3312                 0.3537
 IR Inten    --     10.7323               157.5978                37.3333

                     34                     35                     36
                      A                      A                      A
 Frequencies --    746.0022               784.9577               825.3983
 Red. masses --      1.7585                 1.6669                 1.0945
 Frc consts  --      0.5766                 0.6051                 0.4393
 IR Inten    --     43.6171                 4.8947                67.4704

                     37                     38                     39
                      A                      A                      A
 Frequencies --    829.2101               834.4409               916.5238
 Red. masses --      1.6784                 1.8426                 3.2478
 Frc consts  --      0.6800                 0.7559                 1.6074
 IR Inten    --     21.2648                 8.0540                 4.7077

                     40                     41                     42
                      A                      A                      A
 Frequencies --    930.1313               945.6805               982.1660
 Red. masses --      1.9630                 2.3128                 1.3250
 Frc consts  --      1.0006                 1.2186                 0.7531
 IR Inten    --      7.2668                 3.3750                 0.3916

                     43                     44                     45
                      A                      A                      A
 Frequencies --    986.6928              1004.1364              1032.0125
 Red. masses --      1.8943                 1.5125                 1.4576
 Frc consts  --      1.0866                 0.8985                 0.9147
 IR Inten    --      6.0619                 6.0952                 1.7350

                     46                     47                     48
                      A                      A                      A
 Frequencies --   1049.4994              1050.9091              1062.6591
 Red. masses --      2.4414                 3.2031                 2.2804
 Frc consts  --      1.5844                 2.0842                 1.5172
 IR Inten    --     10.1633                14.8541                 1.2134

                     49                     50                     51
                      A                      A                      A
 Frequencies --   1085.5136              1097.2422              1127.1012
 Red. masses --      2.1561                 2.2228                 1.3633
 Frc consts  --      1.4969                 1.5767                 1.0204
 IR Inten    --      1.5981                 2.4531                 5.0980

                     52                     53                     54
                      A                      A                      A
 Frequencies --   1152.3370              1153.2737              1210.8945
 Red. masses --      2.5909                 1.3803                 1.7783
 Frc consts  --      2.0270                 1.0816                 1.5363
 IR Inten    --     13.6882                 8.5793                 4.5130

                     55                     56                     57
                      A                      A                      A
 Frequencies --   1218.5079              1240.9757              1251.0950
 Red. masses --      1.4504                 1.6139                 1.2959
 Frc consts  --      1.2688                 1.4644                 1.1951
 IR Inten    --      4.1261                 5.4475                 4.6427

                     58                     59                     60
                      A                      A                      A
 Frequencies --   1264.9846              1273.0653              1306.6779
 Red. masses --      1.6508                 1.3043                 1.6914
 Frc consts  --      1.5564                 1.2455                 1.7015
 IR Inten    --      3.9340                 3.4684                 1.1202

                     61                     62                     63
                      A                      A                      A
 Frequencies --   1314.9176              1344.8018              1370.1900
 Red. masses --      2.5873                 1.3368                 1.2635
 Frc consts  --      2.6356                 1.4244                 1.3976
 IR Inten    --      0.4383                 1.0999                 1.6068

                     64                     65                     66
                      A                      A                      A
 Frequencies --   1376.8947              1380.8482              1403.6554
 Red. masses --      1.5106                 1.3687                 1.5675
 Frc consts  --      1.6873                 1.5377                 1.8196
 IR Inten    --      5.7322                 0.3696                 2.7579

                     67                     68                     69
                      A                      A                      A
 Frequencies --   1452.9935              1480.2292              1480.8356
 Red. masses --      1.1805                 1.1463                 1.8981
 Frc consts  --      1.4684                 1.4798                 2.4524
 IR Inten    --      2.6644                14.6736                20.6134

                     70                     71                     72
                      A                      A                      A
 Frequencies --   1485.5529              1490.0803              1502.3543
 Red. masses --      1.0587                 1.0846                 1.0953
 Frc consts  --      1.3766                 1.4189                 1.4565
 IR Inten    --      3.0463                 1.7374                19.6160

                     73                     74                     75
                      A                      A                      A
 Frequencies --   1515.8033              1534.5631              1547.8602
 Red. masses --      1.1529                 2.0474                 1.1419
 Frc consts  --      1.5607                 2.8407                 1.6120
 IR Inten    --     18.7769                12.5258                23.6833

                     76                     77                     78
                      A                      A                      A
 Frequencies --   1554.6806              1626.1252              1652.0367
 Red. masses --      1.1901                 1.0869                 1.1964
 Frc consts  --      1.6947                 1.6934                 1.9238
 IR Inten    --     43.6634               131.2127                10.9348

                     79                     80                     81
                      A                      A                      A
 Frequencies --   1662.1375              1683.3927              1712.0122
 Red. masses --      3.8271                 5.8583                 1.0742
 Frc consts  --      6.2295                 9.7811                 1.8550
 IR Inten    --      7.4376                15.4912                65.2610

                     82                     83                     84
                      A                      A                      A
 Frequencies --   2958.4839              3080.8911              3088.4530
 Red. masses --      1.0894                 1.0348                 1.0821
 Frc consts  --      5.6179                 5.7870                 6.0813
 IR Inten    --   1129.9448                 5.0606                 0.1979

                     85                     86                     87
                      A                      A                      A
 Frequencies --   3095.3125              3109.7314              3119.0996
 Red. masses --      1.0659                 1.0630                 1.0635
 Frc consts  --      6.0168                 6.0568                 6.0959
 IR Inten    --      7.9783                 8.2374                 6.5182

                     88                     89                     90
                      A                      A                      A
 Frequencies --   3160.7763              3167.8373              3179.5442
 Red. masses --      1.1053                 1.1073                 1.1066
 Frc consts  --      6.5058                 6.5469                 6.5915
 IR Inten    --      1.2385                 1.6477                 9.9545

                     91                     92                     93
                      A                      A                      A
 Frequencies --   3184.1637              3192.9024              3195.4050
 Red. masses --      1.1069                 1.1069                 1.0914
 Frc consts  --      6.6124                 6.6488                 6.5655
 IR Inten    --      0.7747                 0.9268                 3.7196

                     94                     95                     96
                      A                      A                      A
 Frequencies --   3197.5300              3210.8603              3238.4274
 Red. masses --      1.0917                 1.0922                 1.0982
 Frc consts  --      6.5762                 6.6343                 6.7858
 IR Inten    --      3.0963                 4.9367                 2.0815

                     97                     98                     99
                      A                      A                      A
 Frequencies --   3277.5439              3654.0923              3761.2617
 Red. masses --      1.0657                 1.0516                 1.0806
 Frc consts  --      6.7453                 8.2726                 9.0073
 IR Inten    --    991.7251               448.1591               838.9206

                    100                    101                    102
                      A                      A                      A
 Frequencies --   3878.7834              3944.5537              3985.4552
 Red. masses --      1.0453                 1.0665                 1.0829
 Frc consts  --      9.2655                 9.7769                10.1344
 IR Inten    --     20.2312                88.5938               107.3329

 - Thermochemistry -
 -------------------
 Temperature   130.000 Kelvin.  Pressure   1.00000 Atm.
 Atom     1 has atomic number  7 and mass  14.00307

 Molecular mass:   217.15522 amu.
 Principal axes and moments of inertia in atomic units:
                           1         2         3
     Eigenvalues --  3159.027544952.378486893.97380
           X            0.99999   0.00064   0.00320
           Y           -0.00067   0.99996   0.00851
           Z           -0.00320  -0.00851   0.99996
 This molecule is an asymmetric top.
 Rotational symmetry number  1.
 Warning -- assumption of classical behavior for rotation
           may cause significant error
 Rotational temperatures (Kelvin)      0.02742     0.01749     0.01256
 Rotational constants (GHZ):           0.57130     0.36442     0.26179
 Zero-point vibrational energy     835574.5 (Joules/Mol)
                                  199.70709 (Kcal/Mol)
 Warning -- explicit consideration of  19 degrees of freedom as
           vibrations may cause significant error
 Vibrational temperatures:     15.07    30.12    48.58    57.82    87.89
          (Kelvin)             92.28   137.30   144.63   158.92   196.43
                              238.26   255.41   268.16   289.40   308.86
                              327.49   333.10   343.87   387.63   471.82
                              496.76   558.79   607.13   626.28   753.73
                              782.31   820.47   834.22   902.35   928.77
                              958.36   987.41  1056.10  1073.33  1129.38
                             1187.56  1193.05  1200.57  1318.67  1338.25
                             1360.62  1413.12  1419.63  1444.73  1484.84
                             1510.00  1512.02  1528.93  1561.81  1578.69
                             1621.65  1657.96  1659.30  1742.21  1753.16
                             1785.49  1800.05  1820.03  1831.66  1880.02
                             1891.87  1934.87  1971.40  1981.04  1986.73
                             2019.55  2090.53  2129.72  2130.59  2137.38
                             2143.89  2161.55  2180.90  2207.89  2227.03
                             2236.84  2339.63  2376.91  2391.45  2422.03
                             2463.20  4256.60  4432.72  4443.60  4453.46
                             4474.21  4487.69  4547.65  4557.81  4574.65
                             4581.30  4593.87  4597.48  4600.53  4619.71
                             4659.37  4715.65  5257.42  5411.62  5580.70
                             5675.33  5734.18

 Zero-point correction=                           0.318254 (Hartree/Particle)
 Thermal correction to Energy=                    0.323431
 Thermal correction to Enthalpy=                  0.323842
 Thermal correction to Gibbs Free Energy=         0.301661
 Sum of electronic and zero-point Energies=           -728.277197
 Sum of electronic and thermal Energies=              -728.272020
 Sum of electronic and thermal Enthalpies=            -728.271608
 Sum of electronic and thermal Free Energies=         -728.293790

                     E (Thermal)             CV                S
                      KCal/Mol        Cal/Mol-Kelvin    Cal/Mol-Kelvin
 Total                  202.956             40.042            107.070
 Electronic               0.000              0.000              0.000
 Translational            0.388              2.981             37.906
 Rotational               0.388              2.981             30.570
 Vibrational            202.181             34.080             38.594
 Vibration     1          0.259              1.985              6.271
 Vibration     2          0.259              1.978              4.897
 Vibration     3          0.261              1.964              3.955
 Vibration     4          0.263              1.955              3.613
 Vibration     5          0.268              1.913              2.803
 Vibration     6          0.269              1.906              2.709
 Vibration     7          0.282              1.812              1.969
 Vibration     8          0.284              1.794              1.875
 Vibration     9          0.290              1.757              1.707
 Vibration    10          0.306              1.649              1.346
 Vibration    11          0.327              1.513              1.040
 Vibration    12          0.337              1.455              0.937
 Vibration    13          0.344              1.410              0.867
 Vibration    14          0.357              1.336              0.762
 Vibration    15          0.370              1.267              0.678
 Vibration    16          0.382              1.201              0.605
 Vibration    17          0.386              1.181              0.585
 Vibration    18          0.394              1.144              0.548
 Vibration    19          0.426              0.994              0.420

                           ! Non-Optimized Parameters !
 Normal termination of Gaussian 16 at Mon Jul 12 18:22:23 2021.
