 Gaussian 16, Revision A.03,
 Gaussian 16:  ES64L-G16RevA.03 25-Dec-2016

 -----------------------------
 # wB97XD/aug-cc-pVDZ opt freq
 -----------------------------

 ----
 blah
 ----
 Symbolic Z-matrix:
 Charge =  1 Multiplicity = 1

 SCF Done:  E(RwB97XD) =  -728.581927036     A.U. after   16 cycles
 SCF Done:  E(RwB97XD) =  -728.588178878     A.U. after   12 cycles
 SCF Done:  E(RwB97XD) =  -728.592900079     A.U. after   13 cycles
 SCF Done:  E(RwB97XD) =  -728.594511185     A.U. after   13 cycles
 SCF Done:  E(RwB97XD) =  -728.595559514     A.U. after   12 cycles
 SCF Done:  E(RwB97XD) =  -728.596504215     A.U. after   13 cycles
 SCF Done:  E(RwB97XD) =  -728.596994268     A.U. after   12 cycles
 SCF Done:  E(RwB97XD) =  -728.597241085     A.U. after   12 cycles
 SCF Done:  E(RwB97XD) =  -728.597388024     A.U. after   12 cycles
 SCF Done:  E(RwB97XD) =  -728.597479385     A.U. after   12 cycles
 SCF Done:  E(RwB97XD) =  -728.598030435     A.U. after   11 cycles
 SCF Done:  E(RwB97XD) =  -728.598035427     A.U. after   11 cycles
 SCF Done:  E(RwB97XD) =  -728.598038773     A.U. after   10 cycles
 SCF Done:  E(RwB97XD) =  -728.598040748     A.U. after   10 cycles
 SCF Done:  E(RwB97XD) =  -728.598041144     A.U. after   10 cycles
 SCF Done:  E(RwB97XD) =  -728.598041509     A.U. after    9 cycles
 SCF Done:  E(RwB97XD) =  -728.598041706     A.U. after    9 cycles
 SCF Done:  E(RwB97XD) =  -728.598041804     A.U. after    9 cycles
 SCF Done:  E(RwB97XD) =  -728.598041846     A.U. after    9 cycles
 Optimization completed.
    -- Stationary point found.
 Normal termination of Gaussian 16 at Sat Jan 28 20:32:35 2023.

 ----------------------------------------------------------------------
 #N Geom=AllCheck Guess=TCheck SCRF=Check GenChk RwB97XD/Aug-CC-pVDZ Fr
 eq
 ----------------------------------------------------------------------

 Structure from the checkpoint file:  "/gscratch/scrubbed/gds001/Gau-8166.chk"
 ----
 blah
 ----
 Charge =  1 Multiplicity = 1

                         Standard orientation:
 ---------------------------------------------------------------------
 Center     Atomic      Atomic             Coordinates (Angstroms)
 Number     Number       Type             X           Y           Z
 ---------------------------------------------------------------------
      1          7           0       -1.936715   -0.201518    0.581763
      2          6           0       -1.370718   -0.918705   -0.574503
      3          6           0       -1.672810   -0.006157   -1.789040
      4          6           0       -2.711382    1.012402   -1.269639
      5          6           0       -3.161320    0.423973    0.063436
      6          6           0        0.089497   -1.243883   -0.355216
      7          6           0        1.033524   -0.225166   -0.307073
      8          7           0        2.323896   -0.497500   -0.078159
      9          6           0        2.784029   -1.745927    0.105698
     10          6           0        1.901660   -2.807126    0.059620
     11          6           0        0.547830   -2.548553   -0.169196
     12          8           0        3.529900    1.859135   -0.114126
     13          8           0       -0.407445    1.908577    1.599336
     14          1           0       -3.533832    1.171322    0.774230
     15          1           0       -3.546083    1.152887   -1.963154
     16          1           0       -2.240520    1.989023   -1.105823
     17          1           0       -2.064962   -0.609087   -2.614656
     18          1           0       -0.771883    0.494126   -2.160889
     19          1           0       -3.952377   -0.334895   -0.083344
     20          1           0       -1.908249   -1.877035   -0.702013
     21          1           0        0.796259    0.827051   -0.455226
     22          1           0        3.851055   -1.854122    0.282614
     23          1           0        2.267337   -3.820910    0.203824
     24          1           0       -0.160530   -3.376926   -0.202551
     25          6           0       -2.165921   -1.062079    1.736549
     26          1           0        2.968179    0.335076   -0.040509
     27          1           0       -0.977858    1.176050    1.256566
     28          1           0       -0.808675    2.235893    2.406783
     29          1           0        2.768875    2.478775   -0.133361
     30          1           0        4.248360    2.289513    0.353757
     31          8           0        1.125126    3.038326   -0.276206
     32          1           0        0.881126    3.895520   -0.631378
     33          1           0        0.519021    2.843832    0.469993
     34          1           0       -2.621680   -0.477363    2.544213
     35          1           0       -1.212612   -1.461546    2.104895
     36          1           0       -2.838191   -1.905035    1.494957
 ---------------------------------------------------------------------

 SCF Done:  E(RwB97XD) =  -728.598041846     A.U. after    1 cycles

 The electronic state is 1-A.
 Alpha  occ. eigenvalues --  -19.39648 -19.39150 -19.38594 -14.68017 -14.58522
 Alpha  occ. eigenvalues --  -10.51462 -10.50949 -10.48211 -10.47554 -10.47258
 Alpha  occ. eigenvalues --  -10.46838 -10.43716 -10.43692 -10.41836 -10.40838
 Alpha  occ. eigenvalues --   -1.26359  -1.24385  -1.23379  -1.22222  -1.17824
 Alpha  occ. eigenvalues --   -1.08681  -1.05135  -1.00951  -0.96396  -0.91011
 Alpha  occ. eigenvalues --   -0.90227  -0.89176  -0.82975  -0.80273  -0.79871
 Alpha  occ. eigenvalues --   -0.75674  -0.75392  -0.75127  -0.74175  -0.73757
 Alpha  occ. eigenvalues --   -0.71266  -0.69941  -0.69263  -0.68429  -0.66033
 Alpha  occ. eigenvalues --   -0.65105  -0.64357  -0.63514  -0.62123  -0.61200
 Alpha  occ. eigenvalues --   -0.59659  -0.59071  -0.57990  -0.57424  -0.56634
 Alpha  occ. eigenvalues --   -0.56093  -0.54243  -0.53964  -0.53222  -0.52822
 Alpha  occ. eigenvalues --   -0.52524  -0.51970  -0.49744  -0.44886
 Alpha virt. eigenvalues --   -0.14214  -0.11395  -0.06600  -0.05592  -0.05155
 Alpha virt. eigenvalues --   -0.04522  -0.03646  -0.03400  -0.03222  -0.02499
 Alpha virt. eigenvalues --   -0.02051  -0.01602  -0.01189  -0.00837  -0.00101

 Mulliken charges:
               1
     1  N   -1.387217
     2  C    0.819934
     3  C    1.189904
     4  C    0.779621
     5  C    1.393145
     6  C    0.818311
     7  C    0.809081
     8  N    0.073370
     9  C    0.718032
    10  C    0.430124
    11  C    1.236033
    12  O   -0.415619
    13  O   -0.433559
    14  H   -0.513412
    15  H   -0.320784
    16  H   -0.284811
    17  H   -0.463241
    18  H   -0.434358
    19  H   -0.443641
    20  H   -0.814501
    21  H   -1.176610
    22  H   -0.660759
    23  H   -0.576274
    24  H   -0.888238
    25  C    1.041217
    26  H    0.131940
    27  H    0.433384
    28  H    0.170690
    29  H    0.209904
    30  H    0.164552
    31  O   -0.497621
    32  H    0.204773
    33  H    0.256235
    34  H   -0.212330
    35  H   -0.172238
    36  H   -0.185038
 Sum of Mulliken charges =   1.00000

 Dipole moment (field-independent basis, Debye):
    X=              2.1373    Y=             -1.4968    Z=              1.2275  Tot=              2.8836
 Quadrupole moment (field-independent basis, Debye-Ang):
   XX=            -52.6973   YY=            -56.1001   ZZ=            -84.3715
   XY=             -3.6683   XZ=              2.4103   YZ=              1.7590

  Exact polarizability: 175.719  -7.637 160.857   4.274  -4.426 120.754
 Approx polarizability: 180.775  -2.025 179.222   5.786  -3.296 137.172

                      1                      2                      3
                      A                      A                      A
 Frequencies --     13.5159                44.5885                46.0565
 Red. masses --      3.5508                 4.4484                 3.1386
 Frc consts  --      0.0004                 0.0052                 0.0039
 IR Inten    --      0.3084                 0.2546                 0.4241

                      4                      5                      6
                      A                      A                      A
 Frequencies --     64.8059                67.4914                88.3443
 Red. masses --      4.7605                 3.9314                 4.8999
 Frc consts  --      0.0118                 0.0106                 0.0225
 IR Inten    --      1.5477                 3.9072                 1.9745

                      7                      8                      9
                      A                      A                      A
 Frequencies --    100.1270               117.8516               165.0542
 Red. masses --      4.2349                 4.3688                 4.4352
 Frc consts  --      0.0250                 0.0358                 0.0712
 IR Inten    --      1.1432                 1.9921                 5.3255

                     10                     11                     12
                      A                      A                      A
 Frequencies --    188.4259               196.6986               218.5757
 Red. masses --      1.2610                 1.7880                 1.6605
 Frc consts  --      0.0264                 0.0408                 0.0467
 IR Inten    --     87.2925                 2.9624                28.8713

                     13                     14                     15
                      A                      A                      A
 Frequencies --    219.7791               238.9277               258.2540
 Red. masses --      1.5911                 4.0997                 1.2837
 Frc consts  --      0.0453                 0.1379                 0.0504
 IR Inten    --     83.6837                19.4625                 1.6345

                     16                     17                     18
                      A                      A                      A
 Frequencies --    265.2213               266.4709               287.2324
 Red. masses --      3.3328                 2.1764                 1.3542
 Frc consts  --      0.1381                 0.0911                 0.0658
 IR Inten    --     89.3801                 5.0664                58.2148

                     19                     20                     21
                      A                      A                      A
 Frequencies --    303.0031               331.1496               394.6086
 Red. masses --      4.9083                 4.3281                 2.8847
 Frc consts  --      0.2655                 0.2796                 0.2647
 IR Inten    --      6.4031                 1.2811                 6.0416

                     22                     23                     24
                      A                      A                      A
 Frequencies --    404.8167               418.5737               473.2463
 Red. masses --      2.7655                 2.9804                 1.0791
 Frc consts  --      0.2670                 0.3077                 0.1424
 IR Inten    --     13.9412                 0.5388                30.0653

                     25                     26                     27
                      A                      A                      A
 Frequencies --    531.9440               550.3063               572.9079
 Red. masses --      1.1080                 2.0916                 1.6239
 Frc consts  --      0.1847                 0.3732                 0.3140
 IR Inten    --     87.0407                10.7313                17.1723

                     28                     29                     30
                      A                      A                      A
 Frequencies --    588.2009               634.8860               650.8466
 Red. masses --      2.2290                 4.3529                 4.0656
 Frc consts  --      0.4544                 1.0338                 1.0147
 IR Inten    --     11.2914                10.4309                 3.1980

                     31                     32                     33
                      A                      A                      A
 Frequencies --    654.3228               716.0798               774.8835
 Red. masses --      3.3847                 1.9498                 1.5570
 Frc consts  --      0.8538                 0.5891                 0.5508
 IR Inten    --      8.2430                42.8043                70.6633

                     34                     35                     36
                      A                      A                      A
 Frequencies --    787.3133               833.8018               837.8156
 Red. masses --      1.2563                 1.2855                 1.2974
 Frc consts  --      0.4588                 0.5265                 0.5366
 IR Inten    --    165.6483                16.8775                70.9338

                     37                     38                     39
                      A                      A                      A
 Frequencies --    857.2495               876.6533               918.9980
 Red. masses --      1.7920                 1.0950                 1.8382
 Frc consts  --      0.7759                 0.4958                 0.9147
 IR Inten    --     18.4111                55.3257                11.6944

                     40                     41                     42
                      A                      A                      A
 Frequencies --    935.1563               960.0733               977.0254
 Red. masses --      3.0751                 2.3102                 1.2995
 Frc consts  --      1.5844                 1.2546                 0.7309
 IR Inten    --      7.0322                 6.9378                 8.5357

                     43                     44                     45
                      A                      A                      A
 Frequencies --    985.5944              1006.0096              1033.3789
 Red. masses --      1.6709                 1.7707                 1.4097
 Frc consts  --      0.9563                 1.0559                 0.8869
 IR Inten    --      4.3545                 9.8365                 0.5847

                     46                     47                     48
                      A                      A                      A
 Frequencies --   1047.5147              1064.6534              1073.9887
 Red. masses --      3.7054                 2.0694                 2.0131
 Frc consts  --      2.3956                 1.3820                 1.3681
 IR Inten    --      2.2284                13.7486                 5.4401

                     49                     50                     51
                      A                      A                      A
 Frequencies --   1094.3552              1108.1320              1141.7102
 Red. masses --      2.1393                 2.1195                 1.2654
 Frc consts  --      1.5095                 1.5334                 0.9719
 IR Inten    --      4.4196                 6.6607                 5.1454

                     52                     53                     54
                      A                      A                      A
 Frequencies --   1149.7693              1150.9488              1187.2814
 Red. masses --      1.3774                 1.2200                 1.7516
 Frc consts  --      1.0728                 0.9522                 1.4548
 IR Inten    --     10.0994                25.5195                10.3837

                     55                     56                     57
                      A                      A                      A
 Frequencies --   1213.5236              1227.4901              1240.0648
 Red. masses --      1.3897                 1.4303                 1.8525
 Frc consts  --      1.2058                 1.2697                 1.6784
 IR Inten    --      9.3240                 7.0907                19.0857

                     58                     59                     60
                      A                      A                      A
 Frequencies --   1256.9866              1267.9513              1276.7414
 Red. masses --      1.7395                 1.6541                 1.7282
 Frc consts  --      1.6193                 1.5668                 1.6598
 IR Inten    --      2.9451                13.8912                 8.5033

                     61                     62                     63
                      A                      A                      A
 Frequencies --   1310.2722              1330.8938              1338.7716
 Red. masses --      1.3264                 2.0646                 1.3580
 Frc consts  --      1.3417                 2.1546                 1.4341
 IR Inten    --      3.5261                28.4253                 0.1305

                     64                     65                     66
                      A                      A                      A
 Frequencies --   1358.4381              1377.6756              1383.4161
 Red. masses --      1.3908                 1.9139                 1.5750
 Frc consts  --      1.5122                 2.1403                 1.7759
 IR Inten    --      2.3129                11.2677                 6.3531

                     67                     68                     69
                      A                      A                      A
 Frequencies --   1399.2117              1446.1795              1453.0630
 Red. masses --      1.7235                 1.4802                 1.3627
 Frc consts  --      1.9880                 1.8239                 1.6952
 IR Inten    --      2.6324                14.5355                15.5715

                     70                     71                     72
                      A                      A                      A
 Frequencies --   1484.1472              1486.8425              1491.2432
 Red. masses --      1.0490                 1.0716                 1.0730
 Frc consts  --      1.3614                 1.3957                 1.4059
 IR Inten    --     12.7094                 8.9692                 9.6091

                     73                     74                     75
                      A                      A                      A
 Frequencies --   1505.3180              1516.5169              1525.4191
 Red. masses --      1.1124                 1.4152                 1.4857
 Frc consts  --      1.4851                 1.9177                 2.0368
 IR Inten    --      8.6373                28.8445                23.1542

                     76                     77                     78
                      A                      A                      A
 Frequencies --   1618.0780              1638.0496              1659.6937
 Red. masses --      1.0817                 2.4856                 1.0739
 Frc consts  --      1.6686                 3.9294                 1.7429
 IR Inten    --     79.9243                42.0670                22.9392

                     79                     80                     81
                      A                      A                      A
 Frequencies --   1689.0469              1709.6421              1728.6317
 Red. masses --      1.0762                 4.7192                 2.1414
 Frc consts  --      1.8090                 8.1270                 3.7701
 IR Inten    --      7.8033                11.3951                59.3289

                     82                     83                     84
                      A                      A                      A
 Frequencies --   2963.9670              2983.4068              2994.5280
 Red. masses --      1.0978                 1.0841                 1.0705
 Frc consts  --      5.6821                 5.6851                 5.6560
 IR Inten    --   1621.1507                42.0004                50.9101

                     85                     86                     87
                      A                      A                      A
 Frequencies --   2998.1811              3092.9005              3102.2354
 Red. masses --      1.0497                 1.0643                 1.0641
 Frc consts  --      5.5593                 5.9984                 6.0338
 IR Inten    --     83.5529                13.6287                18.7069

                     88                     89                     90
                      A                      A                      A
 Frequencies --   3105.6118              3124.6817              3146.0013
 Red. masses --      1.0874                 1.0934                 1.1048
 Frc consts  --      6.1794                 6.2897                 6.4423
 IR Inten    --     17.8009                16.0873                 2.3755

                     91                     92                     93
                      A                      A                      A
 Frequencies --   3148.5033              3164.9065              3211.2302
 Red. masses --      1.1035                 1.1048                 1.0928
 Frc consts  --      6.4451                 6.5203                 6.6393
 IR Inten    --     14.0547                22.7941                 0.3168

                     94                     95                     96
                      A                      A                      A
 Frequencies --   3234.4441              3245.1998              3261.6206
 Red. masses --      1.0967                 1.0931                 1.1005
 Frc consts  --      6.7599                 6.7828                 6.8976
 IR Inten    --     27.3672                 0.9838                 2.9285

                     97                     98                     99
                      A                      A                      A
 Frequencies --   3292.6609              3489.8161              3549.5418
 Red. masses --      1.0678                 1.0628                 1.0617
 Frc consts  --      6.8208                 7.6262                 7.8816
 IR Inten    --   1231.7791               812.5471               358.2613

                    100                    101                    102
                      A                      A                      A
 Frequencies --   3946.5833              3947.9530              3951.1864
 Red. masses --      1.0677                 1.0683                 1.0687
 Frc consts  --      9.7980                 9.8106                 9.8305
 IR Inten    --    103.6774               111.1066               142.3680

 - Thermochemistry -
 -------------------
 Temperature   298.150 Kelvin.  Pressure   1.00000 Atm.
 Atom     1 has atomic number  7 and mass  14.00307

 Molecular mass:   217.15522 amu.
 Principal axes and moments of inertia in atomic units:
                           1         2         3
     Eigenvalues --  2885.893084074.351055618.45482
           X            0.99982   0.01884   0.00077
           Y           -0.01883   0.99979  -0.00817
           Z           -0.00093   0.00815   0.99997
 This molecule is an asymmetric top.
 Rotational symmetry number  1.
 Warning -- assumption of classical behavior for rotation
           may cause significant error
 Rotational temperatures (Kelvin)      0.03001     0.02126     0.01542
 Rotational constants (GHZ):           0.62537     0.44295     0.32122
 Zero-point vibrational energy     835968.9 (Joules/Mol)
                                  199.80136 (Kcal/Mol)
 Warning -- explicit consideration of  28 degrees of freedom as
           vibrations may cause significant error
 Vibrational temperatures:     19.45    64.15    66.27    93.24    97.11
          (Kelvin)            127.11   144.06   169.56   237.48   271.10
                              283.01   314.48   316.21   343.76   371.57
                              381.59   383.39   413.26   435.95   476.45
                              567.75   582.44   602.23   680.90   765.35
                              791.77   824.29   846.29   913.46   936.42
                              941.42  1030.28  1114.88  1132.77  1199.65
                             1205.43  1233.39  1261.31  1322.23  1345.48
                             1381.33  1405.72  1418.05  1447.42  1486.80
                             1507.14  1531.80  1545.23  1574.53  1594.35
                             1642.67  1654.26  1655.96  1708.23  1745.99
                             1766.08  1784.18  1808.52  1824.30  1836.95
                             1885.19  1914.86  1926.19  1954.49  1982.17
                             1990.43  2013.15  2080.73  2090.63  2135.36
                             2139.23  2145.57  2165.82  2181.93  2194.74
                             2328.05  2356.79  2387.93  2430.16  2459.79
                             2487.12  4264.49  4292.46  4308.46  4313.71
                             4449.99  4463.42  4468.28  4495.72  4526.39
                             4529.99  4553.59  4620.24  4653.64  4669.12
                             4692.74  4737.40  5021.07  5107.00  5678.25
                             5680.22  5684.88

 Zero-point correction=                           0.318404 (Hartree/Particle)
 Thermal correction to Energy=                    0.337139
 Thermal correction to Enthalpy=                  0.338084
 Thermal correction to Gibbs Free Energy=         0.270378
 Sum of electronic and zero-point Energies=           -728.279638
 Sum of electronic and thermal Energies=              -728.260902
 Sum of electronic and thermal Enthalpies=            -728.259958
 Sum of electronic and thermal Free Energies=         -728.327664

                     E (Thermal)             CV                S
                      KCal/Mol        Cal/Mol-Kelvin    Cal/Mol-Kelvin
 Total                  211.558             68.364            142.499
 Electronic               0.000              0.000              0.000
 Translational            0.889              2.981             42.029
 Rotational               0.889              2.981             32.557
 Vibrational            209.781             62.402             67.912
 Vibration     1          0.593              1.986              7.412
 Vibration     2          0.595              1.980              5.044
 Vibration     3          0.595              1.979              4.980
 Vibration     4          0.597              1.971              4.305
 Vibration     5          0.598              1.970              4.225
 Vibration     6          0.601              1.957              3.696
 Vibration     7          0.604              1.949              3.452
 Vibration     8          0.608              1.934              3.135
 Vibration     9          0.623              1.885              2.491
 Vibration    10          0.633              1.856              2.243
 Vibration    11          0.636              1.844              2.164
 Vibration    12          0.646              1.813              1.971
 Vibration    13          0.647              1.811              1.961
 Vibration    14          0.657              1.781              1.811
 Vibration    15          0.667              1.749              1.674
 Vibration    16          0.671              1.737              1.627
 Vibration    17          0.672              1.735              1.619
 Vibration    18          0.684              1.697              1.490
 Vibration    19          0.694              1.668              1.400
 Vibration    20          0.714              1.613              1.254
 Vibration    21          0.762              1.482              0.983
 Vibration    22          0.770              1.460              0.945
 Vibration    23          0.781              1.430              0.897
 Vibration    24          0.830              1.309              0.729
 Vibration    25          0.887              1.179              0.583
 Vibration    26          0.906              1.139              0.544
 Vibration    27          0.929              1.090              0.499
 Vibration    28          0.945              1.057              0.470

                           ! Non-Optimized Parameters !
 Normal termination of Gaussian 16 at Sat Jan 28 21:24:54 2023.
