 Gaussian 16, Revision A.03,
 Gaussian 16:  ES64L-G16RevA.03 25-Dec-2016

 -----------------------------
 # wB97XD/aug-cc-pVDZ opt freq
 -----------------------------

 ----
 blah
 ----
 Symbolic Z-matrix:
 Charge =  1 Multiplicity = 1

 SCF Done:  E(RwB97XD) =  -728.586080866     A.U. after   14 cycles
 SCF Done:  E(RwB97XD) =  -728.586600377     A.U. after   15 cycles
 SCF Done:  E(RwB97XD) =  -728.585861814     A.U. after   15 cycles
 SCF Done:  E(RwB97XD) =  -728.586967387     A.U. after   13 cycles
 SCF Done:  E(RwB97XD) =  -728.587262332     A.U. after   14 cycles
 SCF Done:  E(RwB97XD) =  -728.586882480     A.U. after   15 cycles
 SCF Done:  E(RwB97XD) =  -728.587355452     A.U. after   15 cycles
 SCF Done:  E(RwB97XD) =  -728.587358134     A.U. after   12 cycles
 SCF Done:  E(RwB97XD) =  -728.587396141     A.U. after   11 cycles
 SCF Done:  E(RwB97XD) =  -728.587410789     A.U. after   12 cycles
 SCF Done:  E(RwB97XD) =  -728.587445925     A.U. after   10 cycles
 SCF Done:  E(RwB97XD) =  -728.587446747     A.U. after   10 cycles
 SCF Done:  E(RwB97XD) =  -728.587447020     A.U. after   10 cycles
 SCF Done:  E(RwB97XD) =  -728.587447167     A.U. after    9 cycles
 SCF Done:  E(RwB97XD) =  -728.587447350     A.U. after    8 cycles
 SCF Done:  E(RwB97XD) =  -728.587447426     A.U. after    9 cycles
 SCF Done:  E(RwB97XD) =  -728.587447465     A.U. after    9 cycles
 SCF Done:  E(RwB97XD) =  -728.587447470     A.U. after    7 cycles
 SCF Done:  E(RwB97XD) =  -728.587447476     A.U. after    7 cycles
 Optimization completed.
    -- Stationary point found.
 Normal termination of Gaussian 16 at Thu Jan 26 15:53:37 2023.

 ----------------------------------------------------------------------
 #N Geom=AllCheck Guess=TCheck SCRF=Check GenChk RwB97XD/Aug-CC-pVDZ Fr
 eq
 ----------------------------------------------------------------------

 Structure from the checkpoint file:  "/gscratch/scrubbed/gds001/Gau-4003.chk"
 ----
 blah
 ----
 Charge =  1 Multiplicity = 1

                         Standard orientation:
 ---------------------------------------------------------------------
 Center     Atomic      Atomic             Coordinates (Angstroms)
 Number     Number       Type             X           Y           Z
 ---------------------------------------------------------------------
      1          6           0       -3.049623   -0.248880   -1.582944
      2          6           0       -2.136680   -0.622725   -0.386335
      3          7           0       -3.058152   -0.834781    0.718385
      4          6           0       -4.216332   -1.504237    0.131589
      5          6           0       -4.457017   -0.736032   -1.167173
      6          6           0       -1.125480    0.451651   -0.064374
      7          6           0        0.192196    0.349981   -0.478376
      8          7           0        1.071949    1.333531   -0.223629
      9          6           0        0.736548    2.446180    0.443425
     10          6           0       -0.562161    2.607787    0.896239
     11          6           0       -1.493564    1.605670    0.639278
     12          6           0       -2.479004   -1.545745    1.842889
     13          1           0       -1.583963   -1.555664   -0.627370
     14          1           0       -3.039711    0.833578   -1.757600
     15          1           0       -2.689883   -0.728544   -2.500158
     16          1           0       -5.118072    0.118647   -0.985227
     17          1           0       -4.923971   -1.362770   -1.933899
     18          1           0       -3.990614   -2.569340   -0.080242
     19          1           0       -5.065362   -1.471370    0.824421
     20          1           0       -2.521815    1.690200    0.990976
     21          1           0        1.527830    3.175638    0.597861
     22          1           0        2.066384    1.221959   -0.556504
     23          1           0        0.581489   -0.511468   -1.017489
     24          1           0       -1.642680   -0.974653    2.267733
     25          1           0       -2.107206   -2.550093    1.556835
     26          1           0       -3.234360   -1.667448    2.627721
     27          1           0       -0.834044    3.507784    1.442785
     28          8           0        3.578128    1.051449   -1.030440
     29          1           0        4.290755    0.625093   -0.494884
     30          1           0        3.967206    1.319039   -1.865140
     31          8           0        5.414193   -0.099144    0.487011
     32          1           0        5.821504   -0.965522    0.296389
     33          1           0        6.065481    0.401588    0.982882
     34          8           0        6.519388   -2.558518   -0.055302
     35          1           0        7.237577   -2.724703   -0.671617
     36          1           0        6.549902   -3.275390    0.583789
 ---------------------------------------------------------------------

 SCF Done:  E(RwB97XD) =  -728.587447476     A.U. after    1 cycles

 The electronic state is 1-A.
 Alpha  occ. eigenvalues --  -19.39983 -19.39212 -19.38138 -14.67096 -14.54767
 Alpha  occ. eigenvalues --  -10.50567 -10.50218 -10.46713 -10.46329 -10.46234
 Alpha  occ. eigenvalues --  -10.44725 -10.41079 -10.41000 -10.40098 -10.38702
 Alpha  occ. eigenvalues --   -1.25455  -1.24450  -1.23665  -1.21918  -1.15274
 Alpha  occ. eigenvalues --   -1.07301  -1.04062  -0.98614  -0.94546  -0.89893
 Alpha  occ. eigenvalues --   -0.88288  -0.87075  -0.82200  -0.77988  -0.76805
 Alpha  occ. eigenvalues --   -0.75055  -0.74712  -0.74283  -0.73689  -0.72961
 Alpha  occ. eigenvalues --   -0.70126  -0.68298  -0.67993  -0.67228  -0.64079
 Alpha  occ. eigenvalues --   -0.63526  -0.62805  -0.61926  -0.61533  -0.59672
 Alpha  occ. eigenvalues --   -0.59000  -0.57127  -0.56599  -0.55686  -0.54799
 Alpha  occ. eigenvalues --   -0.53843  -0.53091  -0.52845  -0.52263  -0.51936
 Alpha  occ. eigenvalues --   -0.51606  -0.50308  -0.48424  -0.40830
 Alpha virt. eigenvalues --   -0.13490  -0.09990  -0.06512  -0.05130  -0.04429
 Alpha virt. eigenvalues --   -0.04190  -0.03541  -0.02726  -0.02616  -0.02428
 Alpha virt. eigenvalues --   -0.01864  -0.01392  -0.00846  -0.00724  -0.00603

 Mulliken charges:
               1
     1  C    0.922209
     2  C    0.783942
     3  N   -0.433275
     4  C    1.191184
     5  C    0.672844
     6  C    1.263902
     7  C    0.633716
     8  N   -0.070262
     9  C    0.748835
    10  C    0.190053
    11  C    1.147405
    12  C    0.843639
    13  H   -0.804334
    14  H   -0.441115
    15  H   -0.377541
    16  H   -0.329426
    17  H   -0.281411
    18  H   -0.380684
    19  H   -0.529777
    20  H   -0.965806
    21  H   -0.643835
    22  H    0.095278
    23  H   -0.831230
    24  H   -0.338565
    25  H   -0.167787
    26  H   -0.234502
    27  H   -0.584750
    28  O   -0.475892
    29  H    0.291293
    30  H    0.135480
    31  O   -0.378507
    32  H    0.235697
    33  H    0.134857
    34  O   -0.318017
    35  H    0.150003
    36  H    0.146378
 Sum of Mulliken charges =   1.00000

 Dipole moment (field-independent basis, Debye):
    X=              7.7535    Y=              0.8423    Z=             -0.2951  Tot=              7.8047
 Quadrupole moment (field-independent basis, Debye-Ang):
   XX=              4.7804   YY=            -60.7820   ZZ=            -81.6335
   XY=            -13.8866   XZ=             -2.1074   YZ=              2.3512

  Exact polarizability: 180.374  16.382 154.285  -1.370   8.728 131.026
 Approx polarizability: 178.902   6.423 170.656  -7.303  14.964 147.482

                      1                      2                      3
                      A                      A                      A
 Frequencies --      8.7626                10.8976                19.4581
 Red. masses --      4.2654                 4.6398                 3.6536
 Frc consts  --      0.0002                 0.0003                 0.0008
 IR Inten    --      0.1966                 0.4610                 0.1180

                      4                      5                      6
                      A                      A                      A
 Frequencies --     29.2739                34.8308                37.3402
 Red. masses --      3.2779                 4.4797                 3.3602
 Frc consts  --      0.0017                 0.0032                 0.0028
 IR Inten    --      2.3912                 0.8592                 1.7252

                      7                      8                      9
                      A                      A                      A
 Frequencies --     49.4091                95.5391                97.6129
 Red. masses --      6.6378                 1.1215                 2.9382
 Frc consts  --      0.0095                 0.0060                 0.0165
 IR Inten    --      2.7306                23.9583                 6.3619

                     10                     11                     12
                      A                      A                      A
 Frequencies --    110.3707               160.1894               172.4405
 Red. masses --      4.1993                 1.9273                 1.1336
 Frc consts  --      0.0301                 0.0291                 0.0199
 IR Inten    --      1.8834                 4.2637                29.0011

                     13                     14                     15
                      A                      A                      A
 Frequencies --    185.6709               186.5442               195.0023
 Red. masses --      4.5198                 2.7552                 1.2239
 Frc consts  --      0.0918                 0.0565                 0.0274
 IR Inten    --     49.8303                 5.5830               277.8262

                     16                     17                     18
                      A                      A                      A
 Frequencies --    235.2981               238.0739               246.1333
 Red. masses --      1.3578                 2.8486                 1.1306
 Frc consts  --      0.0443                 0.0951                 0.0404
 IR Inten    --     48.6744                 6.6592                 3.4243

                     19                     20                     21
                      A                      A                      A
 Frequencies --    260.7854               267.8861               304.8436
 Red. masses --      1.0693                 2.7262                 4.2588
 Frc consts  --      0.0428                 0.1153                 0.2332
 IR Inten    --     66.2318                 3.3521                 9.6513

                     22                     23                     24
                      A                      A                      A
 Frequencies --    347.4725               359.2677               414.5004
 Red. masses --      4.9664                 2.8022                 2.9329
 Frc consts  --      0.3533                 0.2131                 0.2969
 IR Inten    --     15.4136                 7.7599                 1.7664

                     25                     26                     27
                      A                      A                      A
 Frequencies --    417.8742               440.8018               537.6613
 Red. masses --      3.1399                 1.0472                 2.0013
 Frc consts  --      0.3230                 0.1199                 0.3409
 IR Inten    --      2.3957                22.9630                 4.4438

                     28                     29                     30
                      A                      A                      A
 Frequencies --    568.3069               596.1642               636.1244
 Red. masses --      1.6324                 2.7744                 5.4593
 Frc consts  --      0.3106                 0.5810                 1.3016
 IR Inten    --     20.0506                 6.6738                29.9338

                     31                     32                     33
                      A                      A                      A
 Frequencies --    646.8967               666.5349               710.7984
 Red. masses --      3.1844                 4.2710                 1.9909
 Frc consts  --      0.7851                 1.1179                 0.5926
 IR Inten    --      2.7187                 1.8958                34.8871

                     34                     35                     36
                      A                      A                      A
 Frequencies --    752.5592               774.6440               839.6709
 Red. masses --      1.0497                 1.7976                 1.6229
 Frc consts  --      0.3503                 0.6356                 0.6742
 IR Inten    --    121.1532                 2.7882                31.3463

                     37                     38                     39
                      A                      A                      A
 Frequencies --    854.5428               904.9188               923.1235
 Red. masses --      1.9699                 1.0451                 1.7005
 Frc consts  --      0.8475                 0.5042                 0.8538
 IR Inten    --      9.0459                82.7530                11.2188

                     40                     41                     42
                      A                      A                      A
 Frequencies --    936.0218               947.3460               969.1081
 Red. masses --      3.4051                 1.5543                 2.1577
 Frc consts  --      1.7577                 0.8219                 1.1940
 IR Inten    --      3.8675                 7.1474                 2.1232

                     43                     44                     45
                      A                      A                      A
 Frequencies --    985.1806              1001.4534              1044.3286
 Red. masses --      1.4601                 1.8625                 3.4272
 Frc consts  --      0.8350                 1.1005                 2.2022
 IR Inten    --      2.5818                 1.0514                 2.0960

                     46                     47                     48
                      A                      A                      A
 Frequencies --   1044.8289              1061.6442              1080.7708
 Red. masses --      1.4771                 2.3247                 1.6852
 Frc consts  --      0.9501                 1.5437                 1.1598
 IR Inten    --      1.5203                 2.2305                16.9082

                     49                     50                     51
                      A                      A                      A
 Frequencies --   1085.0779              1111.6940              1135.3348
 Red. masses --      2.1111                 2.1747                 1.4535
 Frc consts  --      1.4645                 1.5835                 1.1039
 IR Inten    --      2.6907                10.9394                 8.7209

                     52                     53                     54
                      A                      A                      A
 Frequencies --   1138.3648              1197.8419              1206.1130
 Red. masses --      1.2876                 1.4864                 1.2719
 Frc consts  --      0.9831                 1.2566                 1.0901
 IR Inten    --      2.6183                10.1514                 5.7367

                     55                     56                     57
                      A                      A                      A
 Frequencies --   1220.1677              1237.0435              1243.6162
 Red. masses --      1.5971                 1.0868                 1.6269
 Frc consts  --      1.4010                 0.9799                 1.4825
 IR Inten    --      9.4767                33.0792                 7.9511

                     58                     59                     60
                      A                      A                      A
 Frequencies --   1257.4165              1272.2867              1292.4154
 Red. masses --      1.6450                 1.8526                 1.8014
 Frc consts  --      1.5324                 1.7668                 1.7728
 IR Inten    --      9.0762                19.6696                 8.4487

                     61                     62                     63
                      A                      A                      A
 Frequencies --   1304.8440              1322.2718              1329.8018
 Red. masses --      1.4581                 1.5697                 1.3610
 Frc consts  --      1.4627                 1.6170                 1.4180
 IR Inten    --     11.4974                14.6470                 4.8293

                     64                     65                     66
                      A                      A                      A
 Frequencies --   1348.1071              1354.4438              1378.5256
 Red. masses --      1.4921                 1.9794                 1.8996
 Frc consts  --      1.5977                 2.1394                 2.1269
 IR Inten    --      4.7588                 4.0806                25.5895

                     67                     68                     69
                      A                      A                      A
 Frequencies --   1390.3752              1439.9692              1453.1994
 Red. masses --      1.6420                 1.6586                 1.3507
 Frc consts  --      1.8702                 2.0263                 1.6806
 IR Inten    --     12.0143                12.1634                 3.0578

                     70                     71                     72
                      A                      A                      A
 Frequencies --   1477.8587              1483.5874              1489.0573
 Red. masses --      1.0454                 1.0741                 1.0782
 Frc consts  --      1.3452                 1.3929                 1.4085
 IR Inten    --     12.0433                 6.3193                 3.6995

                     73                     74                     75
                      A                      A                      A
 Frequencies --   1502.9445              1514.9370              1521.1870
 Red. masses --      1.0884                 1.9076                 1.2193
 Frc consts  --      1.4485                 2.5795                 1.6623
 IR Inten    --     11.0183                29.9768                 7.7924

                     76                     77                     78
                      A                      A                      A
 Frequencies --   1619.2708              1626.4650              1643.3864
 Red. masses --      2.2092                 1.0855                 1.0857
 Frc consts  --      3.4129                 1.6919                 1.7276
 IR Inten    --     38.5603               127.8771                10.4700

                     79                     80                     81
                      A                      A                      A
 Frequencies --   1675.6952              1699.8260              1713.4694
 Red. masses --      1.0899                 4.3811                 3.0072
 Frc consts  --      1.8031                 7.4583                 5.2019
 IR Inten    --      6.0878                 6.3570                 6.8539

                     82                     83                     84
                      A                      A                      A
 Frequencies --   2917.1017              2929.4500              2957.4309
 Red. masses --      1.1013                 1.0827                 1.0709
 Frc consts  --      5.5217                 5.4745                 5.5185
 IR Inten    --   2842.6536               168.7399                39.9377

                     85                     86                     87
                      A                      A                      A
 Frequencies --   2963.4790              3087.7487              3090.8483
 Red. masses --      1.0573                 1.0623                 1.0803
 Frc consts  --      5.4710                 5.9672                 6.0806
 IR Inten    --    110.4143                17.3703                28.7902

                     88                     89                     90
                      A                      A                      A
 Frequencies --   3101.0605              3122.1220              3138.1296
 Red. masses --      1.0651                 1.0900                 1.1052
 Frc consts  --      6.0346                 6.2603                 6.4127
 IR Inten    --     21.0452                22.4012                 3.2022

                     91                     92                     93
                      A                      A                      A
 Frequencies --   3144.6905              3160.8576              3220.5214
 Red. masses --      1.1020                 1.1060                 1.0920
 Frc consts  --      6.4210                 6.5103                 6.6733
 IR Inten    --     16.8502                23.5369                 1.3183

                     94                     95                     96
                      A                      A                      A
 Frequencies --   3240.0347              3242.9728              3259.3071
 Red. masses --      1.0954                 1.0934                 1.0999
 Frc consts  --      6.7749                 6.7751                 6.8844
 IR Inten    --      1.1765                 2.3743                 1.9153

                     97                     98                     99
                      A                      A                      A
 Frequencies --   3376.8661              3613.8763              3876.9962
 Red. masses --      1.0647                 1.0605                 1.0452
 Frc consts  --      7.1532                 8.1604                 9.2560
 IR Inten    --   1344.8524               612.5537                26.7794

                    100                    101                    102
                      A                      A                      A
 Frequencies --   3952.1479              3953.2965              3983.0566
 Red. masses --      1.0686                 1.0678                 1.0830
 Frc consts  --      9.8339                 9.8324                10.1228
 IR Inten    --    108.7188                91.3193               114.5925

 - Thermochemistry -
 -------------------
 Temperature   298.150 Kelvin.  Pressure   1.00000 Atm.
 Atom     1 has atomic number  6 and mass  12.00000

 Molecular mass:   217.15522 amu.
 Principal axes and moments of inertia in atomic units:
                           1         2         3
     Eigenvalues --  2372.164209885.88419**********
           X            1.00000   0.00066   0.00035
           Y           -0.00065   0.99998  -0.00636
           Z           -0.00035   0.00636   0.99998
 This molecule is an asymmetric top.
 Rotational symmetry number  1.
 Warning -- assumption of classical behavior for rotation
           may cause significant error
 Rotational temperatures (Kelvin)      0.03651     0.00876     0.00788
 Rotational constants (GHZ):           0.76080     0.18256     0.16425
 Zero-point vibrational energy     827980.3 (Joules/Mol)
                                  197.89204 (Kcal/Mol)
 Warning -- explicit consideration of  29 degrees of freedom as
           vibrations may cause significant error
 Vibrational temperatures:     12.61    15.68    28.00    42.12    50.11
          (Kelvin)             53.72    71.09   137.46   140.44   158.80
                              230.48   248.10   267.14   268.40   280.56
                              338.54   342.54   354.13   375.21   385.43
                              438.60   499.94   516.91   596.37   601.23
                              634.22   773.57   817.67   857.75   915.24
                              930.74   959.00  1022.68  1082.76  1114.54
                             1208.10  1229.50  1301.98  1328.17  1346.73
                             1363.02  1394.33  1417.46  1440.87  1502.56
                             1503.28  1527.47  1554.99  1561.19  1599.48
                             1633.49  1637.85  1723.43  1735.33  1755.55
                             1779.83  1789.29  1809.14  1830.54  1859.50
                             1877.38  1902.45  1913.29  1939.63  1948.74
                             1983.39  2000.44  2071.79  2090.83  2126.31
                             2134.55  2142.42  2162.40  2179.66  2188.65
                             2329.77  2340.12  2364.47  2410.95  2445.67
                             2465.30  4197.06  4214.83  4255.08  4263.79
                             4442.58  4447.04  4461.73  4492.04  4515.07
                             4524.51  4547.77  4633.61  4661.69  4665.91
                             4689.42  4858.56  5199.56  5578.13  5686.26
                             5687.91  5730.73

 Zero-point correction=                           0.315361 (Hartree/Particle)
 Thermal correction to Energy=                    0.336091
 Thermal correction to Enthalpy=                  0.337035
 Thermal correction to Gibbs Free Energy=         0.259568
 Sum of electronic and zero-point Energies=           -728.272086
 Sum of electronic and thermal Energies=              -728.251356
 Sum of electronic and thermal Enthalpies=            -728.250412
 Sum of electronic and thermal Free Energies=         -728.327879

                     E (Thermal)             CV                S
                      KCal/Mol        Cal/Mol-Kelvin    Cal/Mol-Kelvin
 Total                  210.900             70.963            163.043
 Electronic               0.000              0.000              0.000
 Translational            0.889              2.981             42.029
 Rotational               0.889              2.981             33.910
 Vibrational            209.123             65.001             87.104
 Vibration     1          0.593              1.987              8.273
 Vibration     2          0.593              1.987              7.840
 Vibration     3          0.593              1.986              6.689
 Vibration     4          0.593              1.984              5.878
 Vibration     5          0.594              1.983              5.533
 Vibration     6          0.594              1.982              5.395
 Vibration     7          0.595              1.978              4.841
 Vibration     8          0.603              1.952              3.543
 Vibration     9          0.603              1.951              3.501
 Vibration    10          0.606              1.941              3.262
 Vibration    11          0.622              1.891              2.548
 Vibration    12          0.626              1.876              2.409
 Vibration    13          0.632              1.859              2.271
 Vibration    14          0.632              1.858              2.262
 Vibration    15          0.636              1.847              2.180
 Vibration    16          0.655              1.787              1.838
 Vibration    17          0.656              1.782              1.817
 Vibration    18          0.661              1.769              1.758
 Vibration    19          0.669              1.744              1.657
 Vibration    20          0.673              1.732              1.610
 Vibration    21          0.696              1.665              1.390
 Vibration    22          0.725              1.580              1.178
 Vibration    23          0.734              1.556              1.125
 Vibration    24          0.778              1.439              0.911
 Vibration    25          0.781              1.431              0.899
 Vibration    26          0.801              1.381              0.824
 Vibration    27          0.893              1.167              0.570
 Vibration    28          0.924              1.100              0.508
 Vibration    29          0.954              1.040              0.456

                           ! Non-Optimized Parameters !
 Normal termination of Gaussian 16 at Thu Jan 26 16:32:13 2023.
