 Gaussian 16, Revision A.03,
 Gaussian 16:  ES64L-G16RevA.03 25-Dec-2016

 -----------------------------
 # wB97XD/aug-cc-pVDZ opt freq
 -----------------------------

 ----
 blah
 ----
 Symbolic Z-matrix:
 Charge =  1 Multiplicity = 1

 SCF Done:  E(RwB97XD) =  -728.585326086     A.U. after   14 cycles
 SCF Done:  E(RwB97XD) =  -728.585970889     A.U. after   14 cycles
 SCF Done:  E(RwB97XD) =  -728.586166638     A.U. after   15 cycles
 SCF Done:  E(RwB97XD) =  -728.586305391     A.U. after   15 cycles
 SCF Done:  E(RwB97XD) =  -728.586725291     A.U. after   13 cycles
 SCF Done:  E(RwB97XD) =  -728.586645083     A.U. after   14 cycles
 SCF Done:  E(RwB97XD) =  -728.586613502     A.U. after   15 cycles
 SCF Done:  E(RwB97XD) =  -728.586880049     A.U. after   13 cycles
 SCF Done:  E(RwB97XD) =  -728.587066000     A.U. after   14 cycles
 SCF Done:  E(RwB97XD) =  -728.587005949     A.U. after   12 cycles
 SCF Done:  E(RwB97XD) =  -728.587231047     A.U. after   10 cycles
 SCF Done:  E(RwB97XD) =  -728.587235244     A.U. after   10 cycles
 SCF Done:  E(RwB97XD) =  -728.587240528     A.U. after   10 cycles
 SCF Done:  E(RwB97XD) =  -728.587243520     A.U. after   10 cycles
 SCF Done:  E(RwB97XD) =  -728.587246596     A.U. after   10 cycles
 SCF Done:  E(RwB97XD) =  -728.587247308     A.U. after    9 cycles
 SCF Done:  E(RwB97XD) =  -728.587247420     A.U. after    8 cycles
 SCF Done:  E(RwB97XD) =  -728.587247493     A.U. after    8 cycles
 SCF Done:  E(RwB97XD) =  -728.587247542     A.U. after    8 cycles
 Optimization completed.
    -- Stationary point found.
 Normal termination of Gaussian 16 at Thu Jan 26 15:59:32 2023.

 ----------------------------------------------------------------------
 #N Geom=AllCheck Guess=TCheck SCRF=Check GenChk RwB97XD/Aug-CC-pVDZ Fr
 eq
 ----------------------------------------------------------------------

 Structure from the checkpoint file:  "/gscratch/scrubbed/gds001/Gau-25972.chk"
 ----
 blah
 ----
 Charge =  1 Multiplicity = 1

                         Standard orientation:
 ---------------------------------------------------------------------
 Center     Atomic      Atomic             Coordinates (Angstroms)
 Number     Number       Type             X           Y           Z
 ---------------------------------------------------------------------
      1          6           0       -2.719638    1.640091   -0.519793
      2          6           0       -2.111391    0.216988   -0.604913
      3          7           0       -3.211627   -0.665235   -0.249760
      4          6           0       -4.391963   -0.079147   -0.879781
      5          6           0       -4.247793    1.416297   -0.598434
      6          6           0       -0.929912    0.028253    0.316069
      7          6           0        0.370391    0.075939   -0.158984
      8          7           0        1.415688   -0.051308    0.675150
      9          6           0        1.264041   -0.238253    1.992667
     10          6           0       -0.008668   -0.306881    2.535002
     11          6           0       -1.107236   -0.172504    1.690862
     12          6           0       -2.991624   -2.055639   -0.601363
     13          1           0       -1.771407    0.027864   -1.645562
     14          1           0       -2.438263    2.126530    0.421811
     15          1           0       -2.340239    2.266722   -1.334794
     16          1           0       -4.720058    1.670506    0.356996
     17          1           0       -4.718370    2.026173   -1.376500
     18          1           0       -4.392425   -0.272882   -1.971936
     19          1           0       -5.304474   -0.518450   -0.459863
     20          1           0       -2.124290   -0.234549    2.077944
     21          1           0        2.176601   -0.332179    2.576249
     22          1           0        2.398484   -0.008728    0.271732
     23          1           0        0.613559    0.213304   -1.210837
     24          1           0       -2.118696   -2.452641   -0.066248
     25          1           0       -2.826897   -2.191605   -1.689167
     26          1           0       -3.863980   -2.650397   -0.307058
     27          1           0       -0.131483   -0.464724    3.603967
     28          8           0        3.831975    0.052847   -0.326806
     29          1           0        4.350944   -0.711010   -0.637111
     30          1           0        4.377602    0.854869   -0.417023
     31          8           0        5.255670    2.401467   -0.523239
     32          1           0        5.410889    2.881760   -1.340863
     33          1           0        5.959644    2.667796    0.074081
     34          8           0        5.173909   -2.198658   -1.170700
     35          1           0        5.867475   -2.642070   -0.675015
     36          1           0        5.317280   -2.436593   -2.090569
 ---------------------------------------------------------------------

 SCF Done:  E(RwB97XD) =  -728.587247542     A.U. after    1 cycles

 The electronic state is 1-A.
 Alpha  occ. eigenvalues --  -19.40507 -19.40499 -19.37884 -14.66470 -14.54594
 Alpha  occ. eigenvalues --  -10.50182 -10.49828 -10.46400 -10.46016 -10.45921
 Alpha  occ. eigenvalues --  -10.44513 -10.40910 -10.40852 -10.39931 -10.38564
 Alpha  occ. eigenvalues --   -1.25113  -1.24762  -1.24745  -1.21945  -1.15093
 Alpha  occ. eigenvalues --   -1.06951  -1.03692  -0.98444  -0.94285  -0.89472
 Alpha  occ. eigenvalues --   -0.87999  -0.86872  -0.81776  -0.77805  -0.76573
 Alpha  occ. eigenvalues --   -0.75216  -0.75205  -0.74566  -0.73961  -0.72597
 Alpha  occ. eigenvalues --   -0.69887  -0.67972  -0.67783  -0.66842  -0.64025
 Alpha  occ. eigenvalues --   -0.63823  -0.62624  -0.61754  -0.60513  -0.60450
 Alpha  occ. eigenvalues --   -0.59243  -0.57208  -0.56428  -0.55449  -0.54584
 Alpha  occ. eigenvalues --   -0.53671  -0.53473  -0.53233  -0.52089  -0.51946
 Alpha  occ. eigenvalues --   -0.51780  -0.50148  -0.48133  -0.40660
 Alpha virt. eigenvalues --   -0.13108  -0.09684  -0.06752  -0.04913  -0.04878
 Alpha virt. eigenvalues --   -0.04478  -0.03200  -0.03084  -0.02679  -0.02274
 Alpha virt. eigenvalues --   -0.01479  -0.01241  -0.01146  -0.00859  -0.00345

 Mulliken charges:
               1
     1  C    0.938151
     2  C    0.779094
     3  N   -0.435388
     4  C    1.195476
     5  C    0.673721
     6  C    1.276416
     7  C    0.623659
     8  N   -0.057491
     9  C    0.788511
    10  C    0.157656
    11  C    1.143578
    12  C    0.842743
    13  H   -0.808654
    14  H   -0.440693
    15  H   -0.381530
    16  H   -0.329271
    17  H   -0.280960
    18  H   -0.379644
    19  H   -0.532324
    20  H   -0.966546
    21  H   -0.659012
    22  H    0.119629
    23  H   -0.852779
    24  H   -0.340404
    25  H   -0.165757
    26  H   -0.237474
    27  H   -0.586053
    28  O   -0.459214
    29  H    0.217487
    30  H    0.218387
    31  O   -0.334969
    32  H    0.152837
    33  H    0.151289
    34  O   -0.334501
    35  H    0.151505
    36  H    0.152524
 Sum of Mulliken charges =   1.00000

 Dipole moment (field-independent basis, Debye):
    X=              8.8205    Y=              0.0963    Z=              0.1166  Tot=              8.8218
 Quadrupole moment (field-independent basis, Debye-Ang):
   XX=             -0.2444   YY=            -71.8707   ZZ=            -69.5089
   XY=              0.7568   XZ=             -7.7128   YZ=             -0.6007

  Exact polarizability: 186.984  -2.676 129.934  11.239  -4.126 149.264
 Approx polarizability: 181.791  -1.361 138.321   2.981  -6.198 176.903

                      1                      2                      3
                      A                      A                      A
 Frequencies --      8.3688                16.3866                23.4206
 Red. masses --      4.4100                 3.8597                 4.2145
 Frc consts  --      0.0002                 0.0006                 0.0014
 IR Inten    --      0.0103                 0.0226                 1.8353

                      4                      5                      6
                      A                      A                      A
 Frequencies --     30.0793                36.4713                38.6351
 Red. masses --      4.4961                 2.9644                 5.2638
 Frc consts  --      0.0024                 0.0023                 0.0046
 IR Inten    --      0.7345                 3.8183                 1.2450

                      7                      8                      9
                      A                      A                      A
 Frequencies --     45.9591                93.6960                99.4466
 Red. masses --      4.9029                 1.1075                 2.7085
 Frc consts  --      0.0061                 0.0057                 0.0158
 IR Inten    --      3.9960                 0.2662                 0.5971

                     10                     11                     12
                      A                      A                      A
 Frequencies --    107.4220               112.2817               143.4118
 Red. masses --      1.0306                 4.2466                 5.7601
 Frc consts  --      0.0070                 0.0315                 0.0698
 IR Inten    --     28.5759                 0.0563                21.1969

                     13                     14                     15
                      A                      A                      A
 Frequencies --    160.6189               177.1159               188.6906
 Red. masses --      1.9892                 1.1554                 2.9397
 Frc consts  --      0.0302                 0.0214                 0.0617
 IR Inten    --      1.1751               251.6170                 0.9890

                     16                     17                     18
                      A                      A                      A
 Frequencies --    220.9128               238.5432               245.8347
 Red. masses --      1.1546                 1.0822                 1.1527
 Frc consts  --      0.0332                 0.0363                 0.0410
 IR Inten    --    184.0643                25.3601                 1.3291

                     19                     20                     21
                      A                      A                      A
 Frequencies --    246.7693               248.6155               264.1321
 Red. masses --      4.0342                 1.1588                 2.6594
 Frc consts  --      0.1447                 0.0422                 0.1093
 IR Inten    --     45.8391                 6.1688                 0.1910

                     22                     23                     24
                      A                      A                      A
 Frequencies --    295.8047               333.9418               360.2435
 Red. masses --      4.4380                 5.1926                 2.7996
 Frc consts  --      0.2288                 0.3412                 0.2141
 IR Inten    --      1.7686                20.8791                 6.5458

                     25                     26                     27
                      A                      A                      A
 Frequencies --    415.8927               418.9445               547.4284
 Red. masses --      2.9725                 3.2137                 3.7833
 Frc consts  --      0.3029                 0.3323                 0.6680
 IR Inten    --      1.9129                 2.1522                 1.3273

                     28                     29                     30
                      A                      A                      A
 Frequencies --    591.2885               637.9588               646.4063
 Red. masses --      2.9624                 5.3105                 3.1064
 Frc consts  --      0.6102                 1.2734                 0.7647
 IR Inten    --      0.1491                40.5478                 2.5522

                     31                     32                     33
                      A                      A                      A
 Frequencies --    657.0680               668.5988               712.9965
 Red. masses --      1.1376                 4.2487                 1.9826
 Frc consts  --      0.2894                 1.1190                 0.5938
 IR Inten    --     23.1286                 3.9939                38.6243

                     34                     35                     36
                      A                      A                      A
 Frequencies --    746.6571               762.1069               775.0892
 Red. masses --      1.0629                 1.0303                 1.7555
 Frc consts  --      0.3491                 0.3526                 0.6214
 IR Inten    --    197.4909                 0.0299                 5.4795

                     37                     38                     39
                      A                      A                      A
 Frequencies --    839.7375               853.9469               923.2359
 Red. masses --      1.6409                 1.9509                 1.6880
 Frc consts  --      0.6818                 0.8382                 0.8477
 IR Inten    --     31.0655                11.9561                10.8283

                     40                     41                     42
                      A                      A                      A
 Frequencies --    935.9528               949.0860               968.7671
 Red. masses --      3.4266                 1.5828                 2.1175
 Frc consts  --      1.7686                 0.8400                 1.1709
 IR Inten    --      5.0344                 7.0617                 2.3804

                     43                     44                     45
                      A                      A                      A
 Frequencies --    985.5841              1001.9735              1043.8726
 Red. masses --      1.4530                 1.8722                 3.8864
 Frc consts  --      0.8316                 1.1074                 2.4951
 IR Inten    --      2.2182                 1.0867                 4.0112

                     46                     47                     48
                      A                      A                      A
 Frequencies --   1045.8372              1061.1317              1080.7889
 Red. masses --      1.3961                 2.3247                 1.6850
 Frc consts  --      0.8997                 1.5423                 1.1597
 IR Inten    --      1.0854                 2.1073                16.3702

                     49                     50                     51
                      A                      A                      A
 Frequencies --   1087.2159              1112.3188              1137.7065
 Red. masses --      2.1453                 2.1927                 1.2936
 Frc consts  --      1.4941                 1.5984                 0.9866
 IR Inten    --      3.7368                10.9326                 6.6170

                     52                     53                     54
                      A                      A                      A
 Frequencies --   1139.9498              1198.5780              1206.8909
 Red. masses --      1.4534                 1.4952                 1.2718
 Frc consts  --      1.1127                 1.2656                 1.0915
 IR Inten    --      4.7246                10.6345                 5.4905

                     55                     56                     57
                      A                      A                      A
 Frequencies --   1220.0133              1243.8048              1257.4411
 Red. masses --      1.5773                 1.6038                 1.6445
 Frc consts  --      1.3832                 1.4618                 1.5320
 IR Inten    --      8.9473                 8.4616                 9.8307

                     58                     59                     60
                      A                      A                      A
 Frequencies --   1271.2670              1277.6234              1291.6706
 Red. masses --      1.8686                 1.0797                 1.7374
 Frc consts  --      1.7793                 1.0384                 1.7078
 IR Inten    --     19.0031                34.6976                 6.8452

                     61                     62                     63
                      A                      A                      A
 Frequencies --   1304.4159              1322.4350              1328.9904
 Red. masses --      1.5148                 1.5689                 1.3893
 Frc consts  --      1.5186                 1.6165                 1.4457
 IR Inten    --     12.9050                14.3182                 5.0231

                     64                     65                     66
                      A                      A                      A
 Frequencies --   1347.8420              1357.8623              1379.1617
 Red. masses --      1.4885                 2.0096                 1.8589
 Frc consts  --      1.5933                 2.1831                 2.0832
 IR Inten    --      4.5432                 4.1153                25.6690

                     67                     68                     69
                      A                      A                      A
 Frequencies --   1390.4406              1441.9415              1453.8670
 Red. masses --      1.6387                 1.5570                 1.4264
 Frc consts  --      1.8666                 1.9073                 1.7764
 IR Inten    --     12.4104                11.7173                 5.0606

                     70                     71                     72
                      A                      A                      A
 Frequencies --   1477.7567              1483.3199              1488.4935
 Red. masses --      1.0458                 1.0717                 1.0811
 Frc consts  --      1.3456                 1.3893                 1.4112
 IR Inten    --     11.9801                 6.4912                 3.0553

                     73                     74                     75
                      A                      A                      A
 Frequencies --   1503.2447              1516.1190              1522.0545
 Red. masses --      1.0887                 1.9166                 1.2184
 Frc consts  --      1.4495                 2.5956                 1.6631
 IR Inten    --     10.8591                32.7616                 8.2000

                     76                     77                     78
                      A                      A                      A
 Frequencies --   1621.5658              1624.8299              1634.6915
 Red. masses --      1.7499                 1.2490                 1.0862
 Frc consts  --      2.7110                 1.9429                 1.7101
 IR Inten    --     60.3793                61.9093                57.0444

                     79                     80                     81
                      A                      A                      A
 Frequencies --   1662.6972              1700.5580              1716.7026
 Red. masses --      1.0904                 4.5874                 2.7963
 Frc consts  --      1.7761                 7.8162                 4.8555
 IR Inten    --     12.5538                 5.9730                 7.3409

                     82                     83                     84
                      A                      A                      A
 Frequencies --   2788.2489              2929.1316              2954.3142
 Red. masses --      1.1075                 1.0821                 1.0714
 Frc consts  --      5.0729                 5.4699                 5.5098
 IR Inten    --   3273.9557                45.7251                44.8379

                     85                     86                     87
                      A                      A                      A
 Frequencies --   2960.9118              3085.1118              3092.3668
 Red. masses --      1.0576                 1.0618                 1.0797
 Frc consts  --      5.4628                 5.9546                 6.0835
 IR Inten    --     95.7168                19.2916                28.8988

                     88                     89                     90
                      A                      A                      A
 Frequencies --   3102.5744              3122.7393              3134.7459
 Red. masses --      1.0648                 1.0897                 1.1056
 Frc consts  --      6.0387                 6.2608                 6.4011
 IR Inten    --     20.4314                23.6895                 4.2287

                     91                     92                     93
                      A                      A                      A
 Frequencies --   3146.7643              3160.8260              3222.6906
 Red. masses --      1.1019                 1.1063                 1.0918
 Frc consts  --      6.4285                 6.5124                 6.6810
 IR Inten    --     17.5367                22.6294                 1.0056

                     94                     95                     96
                      A                      A                      A
 Frequencies --   3238.5689              3242.7051              3257.2162
 Red. masses --      1.0952                 1.0930                 1.1003
 Frc consts  --      6.7679                 6.7714                 6.8782
 IR Inten    --      0.8114                 2.2886                 1.1119

                     97                     98                     99
                      A                      A                      A
 Frequencies --   3610.3518              3668.0570              3876.2668
 Red. masses --      1.0446                 1.0891                 1.0453
 Frc consts  --      8.0224                 8.6339                 9.2538
 IR Inten    --    522.8286              1115.0190                18.3809

                    100                    101                    102
                      A                      A                      A
 Frequencies --   3876.6554              3981.3751              3981.7644
 Red. masses --      1.0453                 1.0829                 1.0829
 Frc consts  --      9.2553                10.1132                10.1153
 IR Inten    --     33.6901                19.5463               198.8326

 - Thermochemistry -
 -------------------
 Temperature   298.150 Kelvin.  Pressure   1.00000 Atm.
 Atom     1 has atomic number  6 and mass  12.00000

 Molecular mass:   217.15522 amu.
 Principal axes and moments of inertia in atomic units:
                           1         2         3
     Eigenvalues --  2210.770349307.382399603.88558
           X            1.00000   0.00061   0.00054
           Y           -0.00061   0.99991   0.01348
           Z           -0.00053  -0.01348   0.99991
 This molecule is an asymmetric top.
 Rotational symmetry number  1.
 Warning -- assumption of classical behavior for rotation
           may cause significant error
 Rotational temperatures (Kelvin)      0.03918     0.00931     0.00902
 Rotational constants (GHZ):           0.81634     0.19390     0.18792
 Zero-point vibrational energy     826404.3 (Joules/Mol)
                                  197.51537 (Kcal/Mol)
 Warning -- explicit consideration of  28 degrees of freedom as
           vibrations may cause significant error
 Vibrational temperatures:     12.04    23.58    33.70    43.28    52.47
          (Kelvin)             55.59    66.12   134.81   143.08   154.56
                              161.55   206.34   231.09   254.83   271.48
                              317.84   343.21   353.70   355.05   357.70
                              380.03   425.60   480.47   518.31   598.38
                              602.77   787.63   850.73   917.88   930.03
                              945.37   961.96  1025.84  1074.27  1096.50
                             1115.18  1208.20  1228.64  1328.33  1346.63
                             1365.52  1393.84  1418.04  1441.62  1501.90
                             1504.73  1526.73  1555.01  1564.26  1600.38
                             1636.91  1640.13  1724.49  1736.45  1755.33
                             1789.56  1809.18  1829.07  1838.22  1858.43
                             1876.76  1902.69  1912.12  1939.24  1953.66
                             1984.31  2000.53  2074.63  2091.79  2126.16
                             2134.17  2141.61  2162.83  2181.36  2189.90
                             2333.07  2337.77  2351.96  2392.25  2446.72
                             2469.95  4011.67  4214.37  4250.60  4260.09
                             4438.79  4449.23  4463.91  4492.93  4510.20
                             4527.49  4547.72  4636.73  4659.58  4665.53
                             4686.41  5194.49  5277.52  5577.08  5577.64
                             5728.31  5728.87

 Zero-point correction=                           0.314761 (Hartree/Particle)
 Thermal correction to Energy=                    0.335946
 Thermal correction to Enthalpy=                  0.336890
 Thermal correction to Gibbs Free Energy=         0.258815
 Sum of electronic and zero-point Energies=           -728.272487
 Sum of electronic and thermal Energies=              -728.251302
 Sum of electronic and thermal Enthalpies=            -728.250357
 Sum of electronic and thermal Free Energies=         -728.328433

                     E (Thermal)             CV                S
                      KCal/Mol        Cal/Mol-Kelvin    Cal/Mol-Kelvin
 Total                  210.809             71.565            164.324
 Electronic               0.000              0.000              0.000
 Translational            0.889              2.981             42.029
 Rotational               0.889              2.981             33.646
 Vibrational            209.032             65.603             88.648
 Vibration     1          0.593              1.987              8.365
 Vibration     2          0.593              1.986              7.030
 Vibration     3          0.593              1.985              6.321
 Vibration     4          0.594              1.984              5.824
 Vibration     5          0.594              1.982              5.442
 Vibration     6          0.594              1.981              5.328
 Vibration     7          0.595              1.979              4.984
 Vibration     8          0.603              1.954              3.581
 Vibration     9          0.604              1.950              3.465
 Vibration    10          0.606              1.943              3.315
 Vibration    11          0.607              1.939              3.229
 Vibration    12          0.616              1.910              2.758
 Vibration    13          0.622              1.891              2.542
 Vibration    14          0.628              1.871              2.359
 Vibration    15          0.633              1.855              2.241
 Vibration    16          0.648              1.809              1.952
 Vibration    17          0.657              1.782              1.814
 Vibration    18          0.660              1.770              1.760
 Vibration    19          0.661              1.768              1.754
 Vibration    20          0.662              1.765              1.740
 Vibration    21          0.671              1.739              1.634
 Vibration    22          0.690              1.682              1.441
 Vibration    23          0.715              1.608              1.241
 Vibration    24          0.735              1.554              1.121
 Vibration    25          0.779              1.436              0.906
 Vibration    26          0.782              1.429              0.896
 Vibration    27          0.903              1.145              0.550
 Vibration    28          0.949              1.050              0.465

                           ! Non-Optimized Parameters !
 Normal termination of Gaussian 16 at Thu Jan 26 16:39:34 2023.
