 Gaussian 16, Revision A.03,
 Gaussian 16:  ES64L-G16RevA.03 25-Dec-2016

 ----------------------------------------------------------------
 # wB97XD/aug-cc-pVDZ opt=(TS,CalcAll,MaxStep=5,NoEigenTest) freq
 ----------------------------------------------------------------

 ----
 blah
 ----
 Symbolic Z-matrix:
 Charge =  1 Multiplicity = 1

 SCF Done:  E(RwB97XD) =  -881.462713565     A.U. after   16 cycles
 Optimization completed.
    -- Stationary point found.
 ******    1 imaginary frequencies (negative Signs) ******
    1 imaginary frequencies ignored.
 Normal termination of Gaussian 16 at Wed Apr 26 15:16:09 2023.

 ----------------------------------------------------------------------
 #N Geom=AllCheck Guess=TCheck SCRF=Check GenChk RwB97XD/Aug-CC-pVDZ Fr
 eq
 ----------------------------------------------------------------------

 Structure from the checkpoint file:  "/gscratch/scrubbed/gds001/Gau-5356.chk"
 ----
 blah
 ----
 Charge =  1 Multiplicity = 1

                         Standard orientation:
 ---------------------------------------------------------------------
 Center     Atomic      Atomic             Coordinates (Angstroms)
 Number     Number       Type             X           Y           Z
 ---------------------------------------------------------------------
      1          7           0       -1.538820    1.033319   -1.067426
      2          6           0       -1.997331    2.087279   -0.382638
      3          6           0       -1.181647    2.847193    0.447437
      4          6           0        0.152182    2.476936    0.589312
      5          6           0        0.643117    1.376989   -0.114266
      6          6           0       -0.251588    0.701015   -0.942786
      7          6           0        2.072565    0.919788    0.038803
      8          6           0        2.897885    0.786410   -1.249378
      9          6           0        3.971213   -0.278163   -0.915654
     10          6           0        3.614614   -0.764065    0.496956
     11          7           0        2.181640   -0.433943    0.644842
     12          6           0        1.702439   -0.500951    2.027549
     13          1           0       -3.055759    2.317073   -0.498459
     14          1           0       -1.589455    3.702814    0.981758
     15          1           0        0.810722    3.042425    1.249834
     16          1           0        0.073810   -0.159504   -1.527979
     17          1           0        2.581974    1.623691    0.720064
     18          1           0        3.325719    1.752171   -1.535628
     19          1           0        2.261313    0.453240   -2.076753
     20          1           0        4.985263    0.132266   -0.941620
     21          1           0        3.933929   -1.103404   -1.634873
     22          1           0        4.193124   -0.225670    1.264396
     23          1           0        3.767380   -1.839010    0.651614
     24          1           0        2.244308    0.210848    2.669436
     25          1           0        1.859217   -1.514765    2.413527
     26          1           0        0.630423   -0.273405    2.056631
     27          8           0       -3.008102   -1.071872   -1.734421
     28          8           0        0.932950   -2.222940   -0.618393
     29          8           0       -1.412633   -2.464579   -0.135095
     30          1           0       -3.280331   -1.229952   -2.641868
     31          1           0        1.425446   -3.047326   -0.640062
     32          1           0       -1.644283   -1.977197    0.709833
     33          1           0       -2.518338   -0.196733   -1.694498
     34          1           0       -1.989432   -2.074779   -0.842893
     35          1           0       -0.307207   -2.367381   -0.364587
     36          1           0        1.490544   -1.423420   -0.070796
     37          8           0       -2.085184   -0.988297    1.902532
     38          1           0       -2.929734   -0.605058    1.574337
     39          1           0       -2.281103   -1.365738    2.764133
     40          8           0       -4.284962   -0.141647    0.571693
     41          1           0       -5.205224   -0.275607    0.810946
     42          1           0       -4.159299   -0.551122   -0.300956
 ---------------------------------------------------------------------

 SCF Done:  E(RwB97XD) =  -881.462713565     A.U. after    1 cycles

 The electronic state is 1-A.
 Alpha  occ. eigenvalues --  -19.42992 -19.40295 -19.40162 -19.39992 -19.39500
 Alpha  occ. eigenvalues --  -14.60671 -14.58499 -10.46306 -10.46014 -10.45731
 Alpha  occ. eigenvalues --  -10.44735 -10.44259 -10.44119 -10.43961 -10.42839
 Alpha  occ. eigenvalues --  -10.41458 -10.41187  -1.29244  -1.24931  -1.24437
 Alpha  occ. eigenvalues --   -1.23728  -1.22993  -1.18957  -1.17812  -1.04448
 Alpha  occ. eigenvalues --   -1.01489  -0.99991  -0.94583  -0.90367  -0.86172
 Alpha  occ. eigenvalues --   -0.84850  -0.81328  -0.80248  -0.78966  -0.78005
 Alpha  occ. eigenvalues --   -0.77248  -0.75878  -0.75085  -0.73907  -0.72724
 Alpha  occ. eigenvalues --   -0.71589  -0.70499  -0.69502  -0.66786  -0.65690
 Alpha  occ. eigenvalues --   -0.65108  -0.64693  -0.62714  -0.62359  -0.61949
 Alpha  occ. eigenvalues --   -0.61608  -0.60218  -0.60037  -0.59565  -0.59052
 Alpha  occ. eigenvalues --   -0.57804  -0.57640  -0.56356  -0.55204  -0.54738
 Alpha  occ. eigenvalues --   -0.54496  -0.54025  -0.53875  -0.52625  -0.52441
 Alpha  occ. eigenvalues --   -0.49151  -0.48380  -0.47168  -0.45849
 Alpha virt. eigenvalues --   -0.09067  -0.07710  -0.06602  -0.05396  -0.04996
 Alpha virt. eigenvalues --   -0.04574  -0.03329  -0.03282  -0.03029  -0.02408
 Alpha virt. eigenvalues --   -0.02071  -0.01502  -0.01041  -0.00643  -0.00635

 Mulliken charges:
               1
     1  N   -0.617599
     2  C    0.529564
     3  C    0.397189
     4  C    1.328611
     5  C    0.560508
     6  C    1.080565
     7  C    1.395711
     8  C    1.026215
     9  C    0.845004
    10  C    1.262082
    11  N   -2.136484
    12  C    1.258992
    13  H   -0.693112
    14  H   -0.628327
    15  H   -0.939711
    16  H   -1.220695
    17  H   -0.822397
    18  H   -0.516478
    19  H   -0.281288
    20  H   -0.272810
    21  H   -0.280945
    22  H   -0.517916
    23  H   -0.549190
    24  H   -0.157503
    25  H   -0.198671
    26  H   -0.118360
    27  O   -0.747479
    28  O   -0.561520
    29  O   -0.586516
    30  H    0.253623
    31  H    0.143937
    32  H    0.434187
    33  H    0.416320
    34  H    0.381772
    35  H    0.608053
    36  H    0.937415
    37  O   -0.498221
    38  H    0.290001
    39  H    0.194030
    40  O   -0.380398
    41  H    0.208574
    42  H    0.173266
 Sum of Mulliken charges =   1.00000

 Dipole moment (field-independent basis, Debye):
    X=             -0.8036    Y=             -1.5665    Z=              1.3075  Tot=              2.1930
 Quadrupole moment (field-independent basis, Debye-Ang):
   XX=            -49.1081   YY=            -83.7934   ZZ=            -86.1939
   XY=              0.2545   XZ=              1.6411   YZ=              2.1951

  Exact polarizability: 199.953 -11.128 162.675   4.535  11.407 148.075
 Approx polarizability: 200.560  -8.112 182.563   7.573  19.498 173.007

 ******    1 imaginary frequencies (negative Signs) ******

                      1                      2                      3
                      A                      A                      A
 Frequencies --   -688.9435                29.7062                41.9060
 Red. masses --      1.2457                 5.1354                 4.4570
 Frc consts  --      0.3484                 0.0027                 0.0046
 IR Inten    --   3200.8578                 0.4794                 1.2471

                      4                      5                      6
                      A                      A                      A
 Frequencies --     59.6576                62.7411                66.3932
 Red. masses --      4.4161                 4.1425                 2.5720
 Frc consts  --      0.0093                 0.0096                 0.0067
 IR Inten    --      0.1156                 2.2931                 0.2307

                      7                      8                      9
                      A                      A                      A
 Frequencies --     70.1417                86.2868                90.0759
 Red. masses --      4.9814                 4.3362                 4.1584
 Frc consts  --      0.0144                 0.0190                 0.0199
 IR Inten    --      1.1387                 0.9747                 0.2424

                     10                     11                     12
                      A                      A                      A
 Frequencies --    107.7437               120.0467               128.3853
 Red. masses --      5.2129                 5.6510                 3.9971
 Frc consts  --      0.0357                 0.0480                 0.0388
 IR Inten    --      2.1352                 1.3365                 0.8985

                     13                     14                     15
                      A                      A                      A
 Frequencies --    171.3699               193.7915               214.5676
 Red. masses --      2.2977                 5.5059                 3.3240
 Frc consts  --      0.0398                 0.1218                 0.0902
 IR Inten    --      0.4853                 3.1873                11.7828

                     16                     17                     18
                      A                      A                      A
 Frequencies --    228.1689               249.2560               249.4255
 Red. masses --      3.5813                 2.9718                 2.1723
 Frc consts  --      0.1099                 0.1088                 0.0796
 IR Inten    --     30.6113                 9.9939                11.6652

                     19                     20                     21
                      A                      A                      A
 Frequencies --    258.4317               272.1980               275.2895
 Red. masses --      2.4175                 1.8871                 1.4074
 Frc consts  --      0.0951                 0.0824                 0.0628
 IR Inten    --     49.3520                 2.0907                62.3446

                     22                     23                     24
                      A                      A                      A
 Frequencies --    291.1716               322.0950               338.4415
 Red. masses --      3.5931                 3.6159                 1.4307
 Frc consts  --      0.1795                 0.2210                 0.0966
 IR Inten    --      7.7785                 3.8146                 0.8786

                     25                     26                     27
                      A                      A                      A
 Frequencies --    342.9394               361.8432               372.5362
 Red. masses --      1.2781                 1.9136                 1.0691
 Frc consts  --      0.0886                 0.1476                 0.0874
 IR Inten    --    120.3980                82.3798                28.8825

                     28                     29                     30
                      A                      A                      A
 Frequencies --    402.1524               420.5372               470.9442
 Red. masses --      2.8346                 3.0364                 1.1203
 Frc consts  --      0.2701                 0.3164                 0.1464
 IR Inten    --      5.1032                11.5234               142.2772

                     31                     32                     33
                      A                      A                      A
 Frequencies --    511.3756               534.0854               554.8741
 Red. masses --      1.1589                 2.7411                 3.4619
 Frc consts  --      0.1786                 0.4607                 0.6280
 IR Inten    --    106.5099                59.0474               107.7887

                     34                     35                     36
                      A                      A                      A
 Frequencies --    575.6762               590.9506               616.5013
 Red. masses --      2.5151                 1.3322                 1.0558
 Frc consts  --      0.4911                 0.2741                 0.2364
 IR Inten    --     32.9416                59.2166                51.2754

                     37                     38                     39
                      A                      A                      A
 Frequencies --    639.9851               654.1943               672.3628
 Red. masses --      2.9321                 4.4143                 3.1586
 Frc consts  --      0.7076                 1.1131                 0.8413
 IR Inten    --      1.9591                31.9511               286.6211

                     40                     41                     42
                      A                      A                      A
 Frequencies --    681.7350               738.8135               761.9038
 Red. masses --      5.6497                 1.8706                 1.0733
 Frc consts  --      1.5471                 0.6016                 0.3671
 IR Inten    --      0.7563                53.8239                17.7577

                     43                     44                     45
                      A                      A                      A
 Frequencies --    776.8409               812.6562               826.7382
 Red. masses --      1.2300                 1.2741                 1.2090
 Frc consts  --      0.4373                 0.4958                 0.4869
 IR Inten    --    218.9430               318.4938                69.5323

                     46                     47                     48
                      A                      A                      A
 Frequencies --    836.7103               845.5448               883.1078
 Red. masses --      1.6432                 2.1031                 1.0535
 Frc consts  --      0.6778                 0.8859                 0.4841
 IR Inten    --     69.5427                94.0195               120.6500

                     49                     50                     51
                      A                      A                      A
 Frequencies --    932.1472               942.1503               965.2449
 Red. masses --      2.1003                 2.4699                 1.9581
 Frc consts  --      1.0752                 1.2917                 1.0749
 IR Inten    --     28.3503                 5.3330                95.8129

                     52                     53                     54
                      A                      A                      A
 Frequencies --    976.2938               985.9847               989.1495
 Red. masses --      1.3266                 1.2870                 1.3179
 Frc consts  --      0.7450                 0.7371                 0.7597
 IR Inten    --      9.6451                98.0441               148.6654

                     55                     56                     57
                      A                      A                      A
 Frequencies --   1010.7348              1025.4078              1053.8352
 Red. masses --      1.8969                 1.4190                 4.6292
 Frc consts  --      1.1417                 0.8791                 3.0290
 IR Inten    --     11.2384                 1.6943                37.2666

                     58                     59                     60
                      A                      A                      A
 Frequencies --   1055.6761              1069.0128              1069.9628
 Red. masses --      2.2972                 1.6490                 1.6477
 Frc consts  --      1.5084                 1.1103                 1.1114
 IR Inten    --      7.9116                86.7822                27.2792

                     61                     62                     63
                      A                      A                      A
 Frequencies --   1112.0937              1116.3608              1143.6348
 Red. masses --      1.4883                 2.2271                 1.3200
 Frc consts  --      1.0845                 1.6353                 1.0172
 IR Inten    --     17.0679                 4.5376                24.1209

                     64                     65                     66
                      A                      A                      A
 Frequencies --   1156.6532              1178.3757              1222.0954
 Red. masses --      1.4240                 2.3148                 1.5279
 Frc consts  --      1.1224                 1.8938                 1.3445
 IR Inten    --     16.4138                14.4605                 4.2131

                     67                     68                     69
                      A                      A                      A
 Frequencies --   1236.9637              1238.7164              1250.8465
 Red. masses --      1.9462                 1.5098                 1.3226
 Frc consts  --      1.7545                 1.3650                 1.2192
 IR Inten    --      3.9264                 7.0547                 5.7481

                     70                     71                     72
                      A                      A                      A
 Frequencies --   1266.6848              1291.6431              1296.3776
 Red. masses --      1.5866                 1.4404                 1.3818
 Frc consts  --      1.4998                 1.4159                 1.3682
 IR Inten    --      3.9548                12.4347                 8.8827

                     73                     74                     75
                      A                      A                      A
 Frequencies --   1319.0225              1331.9622              1361.0131
 Red. masses --      3.9711                 1.4048                 1.2092
 Frc consts  --      4.0707                 1.4684                 1.3196
 IR Inten    --      0.9719                14.0029                98.4320

                     76                     77                     78
                      A                      A                      A
 Frequencies --   1371.8991              1378.6725              1393.4781
 Red. masses --      1.3863                 1.3865                 1.4084
 Frc consts  --      1.5373                 1.5527                 1.6113
 IR Inten    --      3.8885                20.3745                92.7778

                     79                     80                     81
                      A                      A                      A
 Frequencies --   1415.5812              1434.5550              1470.8687
 Red. masses --      1.5593                 1.1242                 1.1161
 Frc consts  --      1.8410                 1.3631                 1.4227
 IR Inten    --     66.8466               232.4590                56.2540

                     82                     83                     84
                      A                      A                      A
 Frequencies --   1486.3883              1487.9595              1491.4493
 Red. masses --      2.0222                 1.1018                 1.0766
 Frc consts  --      2.6323                 1.4373                 1.4109
 IR Inten    --     42.0894                 2.6124                12.3617

                     85                     86                     87
                      A                      A                      A
 Frequencies --   1493.1504              1507.8318              1514.8046
 Red. masses --      1.0560                 1.0960                 1.1064
 Frc consts  --      1.3871                 1.4681                 1.4958
 IR Inten    --     16.2708                23.2383               160.2286

                     88                     89                     90
                      A                      A                      A
 Frequencies --   1533.7155              1567.2042              1616.9733
 Red. masses --      2.2544                 1.1099                 1.0818
 Frc consts  --      3.1245                 1.6062                 1.6665
 IR Inten    --     14.6054               322.1343               184.1093

                     91                     92                     93
                      A                      A                      A
 Frequencies --   1649.1756              1653.8307              1667.1040
 Red. masses --      1.0949                 1.1390                 4.1702
 Frc consts  --      1.7545                 1.8355                 6.8285
 IR Inten    --    122.5755               459.1263                32.4456

                     94                     95                     96
                      A                      A                      A
 Frequencies --   1675.8963              1690.9241              1764.0044
 Red. masses --      1.1044                 5.5216                 1.0512
 Frc consts  --      1.8275                 9.3018                 1.9272
 IR Inten    --    171.4918                14.4246               137.9880

                     97                     98                     99
                      A                      A                      A
 Frequencies --   1781.2041              3012.2390              3033.6442
 Red. masses --      1.0750                 1.0846                 1.0403
 Frc consts  --      2.0094                 5.7984                 5.6407
 IR Inten    --    305.2808                22.5720                13.0603

                    100                    101                    102
                      A                      A                      A
 Frequencies --   3034.5688              3041.2849              3099.3251
 Red. masses --      1.0764                 1.0666                 1.0631
 Frc consts  --      5.8403                 5.8124                 6.0170
 IR Inten    --   1298.4863                28.2697                12.1512

                    103                    104                    105
                      A                      A                      A
 Frequencies --   3106.3464              3108.3505              3123.5899
 Red. masses --      1.0732                 1.0666                 1.0964
 Frc consts  --      6.1014                 6.0715                 6.3026
 IR Inten    --   1211.7225                49.4210                22.9051

                    106                    107                    108
                      A                      A                      A
 Frequencies --   3126.5732              3151.8145              3157.4855
 Red. masses --      1.0980                 1.1056                 1.1055
 Frc consts  --      6.3242                 6.4711                 6.4935
 IR Inten    --     25.0907                 0.8106                 6.1691

                    109                    110                    111
                      A                      A                      A
 Frequencies --   3168.1308              3202.7423              3203.5310
 Red. masses --      1.1057                 1.0918                 1.0919
 Frc consts  --      6.5387                 6.5983                 6.6022
 IR Inten    --     18.7991                 1.7336                 3.5471

                    112                    113                    114
                      A                      A                      A
 Frequencies --   3220.9128              3242.3001              3311.6418
 Red. masses --      1.0919                 1.0989                 1.0619
 Frc consts  --      6.6741                 6.8063                 6.8617
 IR Inten    --      2.2995                 1.2875               711.0839

                    115                    116                    117
                      A                      A                      A
 Frequencies --   3483.5546              3700.9950              3920.5604
 Red. masses --      1.0633                 1.0573                 1.0661
 Frc consts  --      7.6023                 8.5330                 9.6547
 IR Inten    --    786.2929               306.1376                84.9967

                    118                    119                    120
                      A                      A                      A
 Frequencies --   3928.6777              3930.0530              3943.9455
 Red. masses --      1.0665                 1.0675                 1.0720
 Frc consts  --      9.6985                 9.7144                 9.8240
 IR Inten    --    135.6984                84.2551               141.7409

 - Thermochemistry -
 -------------------
 Temperature   298.150 Kelvin.  Pressure   1.00000 Atm.
 Atom     1 has atomic number  7 and mass  14.00307

 Molecular mass:   253.17635 amu.
 Principal axes and moments of inertia in atomic units:
                           1         2         3
     Eigenvalues --  3132.169046282.001767288.58269
           X            1.00000   0.00131   0.00002
           Y           -0.00131   0.99996   0.00911
           Z           -0.00001  -0.00911   0.99996
 This molecule is an asymmetric top.
 Rotational symmetry number  1.
 Warning -- assumption of classical behavior for rotation
           may cause significant error
 Rotational temperatures (Kelvin)      0.02765     0.01379     0.01188
 Rotational constants (GHZ):           0.57620     0.28729     0.24761
    1 imaginary frequencies ignored.
 Zero-point vibrational energy     955273.6 (Joules/Mol)
                                  228.31588 (Kcal/Mol)
 Warning -- explicit consideration of  35 degrees of freedom as
           vibrations may cause significant error
 Vibrational temperatures:     42.74    60.29    85.83    90.27    95.53
          (Kelvin)            100.92   124.15   129.60   155.02   172.72
                              184.72   246.56   278.82   308.71   328.28
                              358.62   358.87   371.83   391.63   396.08
                              418.93   463.42   486.94   493.41   520.61
                              536.00   578.61   605.06   677.58   735.76
                              768.43   798.34   828.27   850.25   887.01
                              920.80   941.24   967.38   980.86  1062.99
                             1096.21  1117.70  1169.23  1189.49  1203.84
                             1216.55  1270.60  1341.15  1355.54  1388.77
                             1404.67  1418.61  1423.17  1454.22  1475.33
                             1516.23  1518.88  1538.07  1539.44  1600.05
                             1606.19  1645.44  1664.17  1695.42  1758.32
                             1779.71  1782.24  1799.69  1822.48  1858.39
                             1865.20  1897.78  1916.40  1958.19  1973.86
                             1983.60  2004.90  2036.71  2064.00  2116.25
                             2138.58  2140.84  2145.86  2148.31  2169.43
                             2179.47  2206.67  2254.86  2326.46  2372.80
                             2379.49  2398.59  2411.24  2432.86  2538.01
                             2562.76  4333.94  4364.74  4366.07  4375.73
                             4459.24  4469.34  4472.22  4494.15  4498.44
                             4534.76  4542.92  4558.23  4608.03  4609.17
                             4634.18  4664.95  4764.71  5012.06  5324.91
                             5640.81  5652.49  5654.47  5674.46

 Zero-point correction=                           0.363845 (Hartree/Particle)
 Thermal correction to Energy=                    0.385913
 Thermal correction to Enthalpy=                  0.386857
 Thermal correction to Gibbs Free Energy=         0.312891
 Sum of electronic and zero-point Energies=           -881.098869
 Sum of electronic and thermal Energies=              -881.076800
 Sum of electronic and thermal Enthalpies=            -881.075856
 Sum of electronic and thermal Free Energies=         -881.149823

                     E (Thermal)             CV                S
                      KCal/Mol        Cal/Mol-Kelvin    Cal/Mol-Kelvin
 Total                  242.164             81.563            155.675
 Electronic               0.000              0.000              0.000
 Translational            0.889              2.981             42.487
 Rotational               0.889              2.981             33.328
 Vibrational            240.387             75.602             79.861
 Vibration     1          0.593              1.984              5.849
 Vibration     2          0.595              1.980              5.167
 Vibration     3          0.597              1.974              4.468
 Vibration     4          0.597              1.972              4.369
 Vibration     5          0.598              1.970              4.258
 Vibration     6          0.598              1.968              4.149
 Vibration     7          0.601              1.959              3.743
 Vibration     8          0.602              1.956              3.658
 Vibration     9          0.606              1.943              3.309
 Vibration    10          0.609              1.933              3.100
 Vibration    11          0.611              1.925              2.970
 Vibration    12          0.626              1.878              2.420
 Vibration    13          0.635              1.848              2.191
 Vibration    14          0.644              1.819              2.004
 Vibration    15          0.651              1.798              1.893
 Vibration    16          0.662              1.764              1.736
 Vibration    17          0.662              1.764              1.735
 Vibration    18          0.667              1.749              1.672
 Vibration    19          0.675              1.725              1.582
 Vibration    20          0.677              1.719              1.563
 Vibration    21          0.687              1.690              1.467
 Vibration    22          0.707              1.631              1.299
 Vibration    23          0.719              1.599              1.219
 Vibration    24          0.722              1.590              1.198
 Vibration    25          0.736              1.551              1.114
 Vibration    26          0.744              1.529              1.069
 Vibration    27          0.768              1.465              0.955
 Vibration    28          0.783              1.426              0.890
 Vibration    29          0.828              1.315              0.735
 Vibration    30          0.866              1.225              0.630
 Vibration    31          0.889              1.175              0.578
 Vibration    32          0.910              1.129              0.534
 Vibration    33          0.932              1.084              0.493
 Vibration    34          0.948              1.051              0.465
 Vibration    35          0.976              0.997              0.422

 Optimization completed.
    -- Stationary point found.
 Normal termination of Gaussian 16 at Wed Apr 26 16:52:06 2023.
