 Gaussian 16, Revision A.03,
 Gaussian 16:  ES64L-G16RevA.03 25-Dec-2016

 ----------------------------------------------------------------
 # wB97XD/aug-cc-pVDZ opt=(TS,CalcAll,MaxStep=5,NoEigenTest) freq
 ----------------------------------------------------------------

 ----
 blah
 ----
 Symbolic Z-matrix:
 Charge =  1 Multiplicity = 1

 SCF Done:  E(RwB97XD) =  -881.449961986     A.U. after   16 cycles
 SCF Done:  E(RwB97XD) =  -881.450575639     A.U. after   10 cycles
 SCF Done:  E(RwB97XD) =  -881.451622077     A.U. after   11 cycles
 SCF Done:  E(RwB97XD) =  -881.452427821     A.U. after   11 cycles
 SCF Done:  E(RwB97XD) =  -881.453229318     A.U. after   11 cycles
 SCF Done:  E(RwB97XD) =  -881.453982634     A.U. after   11 cycles
 SCF Done:  E(RwB97XD) =  -881.454656055     A.U. after   11 cycles
 SCF Done:  E(RwB97XD) =  -881.455299605     A.U. after   11 cycles
 SCF Done:  E(RwB97XD) =  -881.455894517     A.U. after   11 cycles
 SCF Done:  E(RwB97XD) =  -881.456433854     A.U. after   11 cycles
 SCF Done:  E(RwB97XD) =  -881.459024946     A.U. after   11 cycles
 SCF Done:  E(RwB97XD) =  -881.459265022     A.U. after   11 cycles
 SCF Done:  E(RwB97XD) =  -881.459474115     A.U. after   11 cycles
 SCF Done:  E(RwB97XD) =  -881.459645088     A.U. after   12 cycles
 SCF Done:  E(RwB97XD) =  -881.459723967     A.U. after   12 cycles
 SCF Done:  E(RwB97XD) =  -881.459814236     A.U. after   11 cycles
 SCF Done:  E(RwB97XD) =  -881.459841892     A.U. after   12 cycles
 SCF Done:  E(RwB97XD) =  -881.459843791     A.U. after   10 cycles
 SCF Done:  E(RwB97XD) =  -881.459843944     A.U. after   10 cycles
 Optimization completed.
    -- Stationary point found.
 ******    1 imaginary frequencies (negative Signs) ******
    1 imaginary frequencies ignored.
 Normal termination of Gaussian 16 at Wed Apr 26 04:54:41 2023.

 ----------------------------------------------------------------------
 #N Geom=AllCheck Guess=TCheck SCRF=Check GenChk RwB97XD/Aug-CC-pVDZ Fr
 eq
 ----------------------------------------------------------------------

 Structure from the checkpoint file:  "/gscratch/scrubbed/gds001/Gau-24907.chk"
 ----
 blah
 ----
 Charge =  1 Multiplicity = 1

                         Standard orientation:
 ---------------------------------------------------------------------
 Center     Atomic      Atomic             Coordinates (Angstroms)
 Number     Number       Type             X           Y           Z
 ---------------------------------------------------------------------
      1          7           0       -1.434440    1.039095   -0.897191
      2          6           0       -1.863220    2.161829   -0.306450
      3          6           0       -0.990691    2.962469    0.413991
      4          6           0        0.337482    2.559307    0.544274
      5          6           0        0.778709    1.382618   -0.062185
      6          6           0       -0.157637    0.659967   -0.793592
      7          6           0        2.194618    0.880801    0.082821
      8          6           0        2.981567    0.724145   -1.231289
      9          6           0        3.966990   -0.437256   -0.955507
     10          6           0        3.654553   -0.870674    0.481588
     11          7           0        2.253651   -0.466964    0.679864
     12          6           0        1.835010   -0.504121    2.077761
     13          1           0       -2.922022    2.389780   -0.409971
     14          1           0       -1.351385    3.875243    0.882816
     15          1           0        1.033067    3.160971    1.130235
     16          1           0        0.102707   -0.265484   -1.305240
     17          1           0        2.735052    1.584614    0.744463
     18          1           0        3.484959    1.659801   -1.495469
     19          1           0        2.303608    0.475589   -2.056243
     20          1           0        5.012362   -0.130543   -1.059421
     21          1           0        3.795259   -1.261298   -1.656974
     22          1           0        4.305281   -0.344239    1.202942
     23          1           0        3.767158   -1.948081    0.655236
     24          1           0        2.436478    0.180106    2.702193
     25          1           0        1.953096   -1.522648    2.465596
     26          1           0        0.777182   -0.225914    2.160514
     27          8           0       -2.862433   -0.796059   -1.688039
     28          8           0        0.783590   -2.385522   -0.593746
     29          8           0       -1.795683   -2.473654   -0.301987
     30          1           0       -3.024458   -0.937733   -2.624078
     31          1           0        1.300326   -3.191046   -0.667119
     32          1           0       -2.032375   -2.125697    0.606565
     33          1           0       -2.204612    0.184889   -1.421878
     34          1           0       -2.272519   -1.779764   -1.022427
     35          1           0       -0.797367   -2.480673   -0.393580
     36          1           0        1.342991   -1.697680   -0.123582
     37          8           0       -2.517501   -1.219732    1.859858
     38          1           0       -3.281457   -0.703965    1.521080
     39          1           0       -2.800985   -1.625582    2.682888
     40          8           0       -4.395625    0.104505    0.406551
     41          1           0       -5.349853    0.045262    0.497060
     42          1           0       -4.170041   -0.271644   -0.463876
 ---------------------------------------------------------------------

 SCF Done:  E(RwB97XD) =  -881.459843944     A.U. after    1 cycles

 The electronic state is 1-A.
 Alpha  occ. eigenvalues --  -19.42899 -19.39890 -19.39660 -19.39406 -19.38380
 Alpha  occ. eigenvalues --  -14.62410 -14.58239 -10.48066 -10.48059 -10.45808
 Alpha  occ. eigenvalues --  -10.45710 -10.45315 -10.44630 -10.43470 -10.43128
 Alpha  occ. eigenvalues --  -10.41122 -10.40467  -1.29122  -1.24549  -1.23694
 Alpha  occ. eigenvalues --   -1.23432  -1.22244  -1.20255  -1.17304  -1.05901
 Alpha  occ. eigenvalues --   -1.02222  -1.00239  -0.94816  -0.89331  -0.87726
 Alpha  occ. eigenvalues --   -0.86734  -0.80471  -0.79630  -0.79152  -0.78300
 Alpha  occ. eigenvalues --   -0.77239  -0.75697  -0.74820  -0.74136  -0.72601
 Alpha  occ. eigenvalues --   -0.72342  -0.70722  -0.69322  -0.67018  -0.65960
 Alpha  occ. eigenvalues --   -0.65535  -0.64424  -0.63931  -0.62791  -0.62497
 Alpha  occ. eigenvalues --   -0.61544  -0.60778  -0.59872  -0.58902  -0.58625
 Alpha  occ. eigenvalues --   -0.57673  -0.56888  -0.55870  -0.55273  -0.54079
 Alpha  occ. eigenvalues --   -0.53826  -0.53535  -0.52871  -0.52519  -0.52070
 Alpha  occ. eigenvalues --   -0.50987  -0.50535  -0.47412  -0.44784
 Alpha virt. eigenvalues --   -0.11229  -0.09124  -0.06475  -0.05170  -0.04851
 Alpha virt. eigenvalues --   -0.04662  -0.03332  -0.03234  -0.03029  -0.02471
 Alpha virt. eigenvalues --   -0.01911  -0.01527  -0.00981  -0.00633  -0.00509

 Mulliken charges:
               1
     1  N   -0.496000
     2  C    0.829188
     3  C    0.280856
     4  C    1.288105
     5  C    0.682428
     6  C    1.106351
     7  C    1.314320
     8  C    1.038801
     9  C    0.796564
    10  C    1.266089
    11  N   -1.394677
    12  C    1.057943
    13  H   -0.708238
    14  H   -0.595757
    15  H   -0.927835
    16  H   -1.438888
    17  H   -0.823154
    18  H   -0.521987
    19  H   -0.309222
    20  H   -0.287549
    21  H   -0.299961
    22  H   -0.529501
    23  H   -0.565604
    24  H   -0.194040
    25  H   -0.239107
    26  H   -0.140310
    27  O   -1.069737
    28  O   -0.484297
    29  O   -0.546571
    30  H    0.177352
    31  H    0.159461
    32  H    0.407247
    33  H    0.487634
    34  H    0.610203
    35  H    0.433926
    36  H    0.627201
    37  O   -0.427450
    38  H    0.245530
    39  H    0.197729
    40  O   -0.381535
    41  H    0.212128
    42  H    0.162365
 Sum of Mulliken charges =   1.00000

 Dipole moment (field-independent basis, Debye):
    X=             -1.7588    Y=              0.0922    Z=              0.6908  Tot=              1.8918
 Quadrupole moment (field-independent basis, Debye-Ang):
   XX=            -51.6313   YY=            -80.2583   ZZ=            -88.6289
   XY=             -2.0270   XZ=              0.3520   YZ=              0.6155

  Exact polarizability: 199.394 -11.834 168.581   5.017  10.097 146.924
 Approx polarizability: 199.803  -8.287 187.839   7.978  17.441 169.637

 ******    1 imaginary frequencies (negative Signs) ******

                      1                      2                      3
                      A                      A                      A
 Frequencies --   -958.5135                18.1502                25.6954
 Red. masses --      1.0660                 4.5397                 5.2812
 Frc consts  --      0.5770                 0.0009                 0.0021
 IR Inten    --   3286.1916                 0.2681                 0.5626

                      4                      5                      6
                      A                      A                      A
 Frequencies --     50.6700                60.7467                71.7566
 Red. masses --      3.6836                 2.7228                 5.1189
 Frc consts  --      0.0056                 0.0059                 0.0155
 IR Inten    --      0.4477                 0.2699                 3.3404

                      7                      8                      9
                      A                      A                      A
 Frequencies --     73.1520                85.8161                96.8180
 Red. masses --      3.8617                 5.4709                 4.5555
 Frc consts  --      0.0122                 0.0237                 0.0252
 IR Inten    --      0.5024                 0.0606                 1.2413

                     10                     11                     12
                      A                      A                      A
 Frequencies --    102.1552               122.6437               143.1929
 Red. masses --      4.4046                 4.3714                 5.0463
 Frc consts  --      0.0271                 0.0387                 0.0610
 IR Inten    --      0.5230                 1.4540                 1.9885

                     13                     14                     15
                      A                      A                      A
 Frequencies --    167.9299               173.5080               190.4535
 Red. masses --      2.0852                 4.4717                 3.7418
 Frc consts  --      0.0346                 0.0793                 0.0800
 IR Inten    --      3.8903                42.1334                15.9159

                     16                     17                     18
                      A                      A                      A
 Frequencies --    217.6524               243.8961               253.6905
 Red. masses --      3.3421                 6.0788                 1.1746
 Frc consts  --      0.0933                 0.2130                 0.0445
 IR Inten    --      0.8342                20.5812                 2.9520

                     19                     20                     21
                      A                      A                      A
 Frequencies --    265.5783               271.5809               296.0246
 Red. masses --      1.4117                 1.8159                 1.5105
 Frc consts  --      0.0587                 0.0789                 0.0780
 IR Inten    --     64.3771                23.4795                90.1648

                     22                     23                     24
                      A                      A                      A
 Frequencies --    313.8089               317.2856               322.0189
 Red. masses --      1.9840                 2.2734                 1.6757
 Frc consts  --      0.1151                 0.1348                 0.1024
 IR Inten    --     20.8323                36.1794                68.0435

                     25                     26                     27
                      A                      A                      A
 Frequencies --    329.8104               368.2894               404.3379
 Red. masses --      4.5339                 1.3919                 2.7321
 Frc consts  --      0.2906                 0.1112                 0.2632
 IR Inten    --     46.8815                18.4635                 8.2772

                     28                     29                     30
                      A                      A                      A
 Frequencies --    410.8866               418.9173               439.8067
 Red. masses --      2.6284                 3.0839                 3.4114
 Frc consts  --      0.2614                 0.3189                 0.3888
 IR Inten    --      6.7133                21.4728                 0.2602

                     31                     32                     33
                      A                      A                      A
 Frequencies --    512.9763               528.2953               551.5575
 Red. masses --      1.3493                 1.6375                 3.3170
 Frc consts  --      0.2092                 0.2693                 0.5945
 IR Inten    --    111.2247               264.6446                13.4026

                     34                     35                     36
                      A                      A                      A
 Frequencies --    566.3218               580.6633               621.3151
 Red. masses --      1.5599                 2.9300                 1.3440
 Frc consts  --      0.2948                 0.5821                 0.3057
 IR Inten    --    216.2184                 2.4860                19.9190

                     37                     38                     39
                      A                      A                      A
 Frequencies --    650.8198               662.8258               672.2108
 Red. masses --      1.5594                 1.2988                 5.3757
 Frc consts  --      0.3892                 0.3362                 1.4312
 IR Inten    --     47.5194               119.4001                 4.7036

                     40                     41                     42
                      A                      A                      A
 Frequencies --    690.0254               728.3616               734.4995
 Red. masses --      2.2255                 1.6286                 2.0174
 Frc consts  --      0.6243                 0.5090                 0.6412
 IR Inten    --     77.8199               100.8155               183.5057

                     43                     44                     45
                      A                      A                      A
 Frequencies --    775.3005               786.4810               827.3989
 Red. masses --      1.0423                 1.4022                 1.0781
 Frc consts  --      0.3691                 0.5110                 0.4349
 IR Inten    --     81.8110                45.3006               134.0478

                     46                     47                     48
                      A                      A                      A
 Frequencies --    840.7218               855.7362               920.6969
 Red. masses --      1.5729                 2.3068                 1.4652
 Frc consts  --      0.6550                 0.9953                 0.7318
 IR Inten    --     47.2440                74.3504                56.6697

                     49                     50                     51
                      A                      A                      A
 Frequencies --    939.9635               945.8051               958.4170
 Red. masses --      2.0811                 1.3947                 2.5943
 Frc consts  --      1.0833                 0.7351                 1.4040
 IR Inten    --      7.8085                28.7062                 1.3142

                     52                     53                     54
                      A                      A                      A
 Frequencies --    978.2714               986.3111               990.2187
 Red. masses --      1.0932                 1.4396                 1.4331
 Frc consts  --      0.6164                 0.8251                 0.8279
 IR Inten    --     31.1734                 0.4323                16.0227

                     55                     56                     57
                      A                      A                      A
 Frequencies --   1011.9579              1030.4671              1055.8917
 Red. masses --      1.7989                 1.3883                 1.2682
 Frc consts  --      1.0854                 0.8685                 0.8331
 IR Inten    --      6.4996                 0.8487                15.8227

                     58                     59                     60
                      A                      A                      A
 Frequencies --   1057.6375              1070.1509              1073.7971
 Red. masses --      2.2614                 2.8109                 1.8346
 Frc consts  --      1.4904                 1.8966                 1.2463
 IR Inten    --      6.2560                92.3223                21.1957

                     61                     62                     63
                      A                      A                      A
 Frequencies --   1112.7150              1119.9235              1146.1671
 Red. masses --      2.2718                 2.1821                 1.2699
 Frc consts  --      1.6572                 1.6125                 0.9829
 IR Inten    --     36.5374                18.7055                 1.8229

                     64                     65                     66
                      A                      A                      A
 Frequencies --   1157.9008              1194.8029              1218.7383
 Red. masses --      1.4444                 1.9216                 1.4477
 Frc consts  --      1.1410                 1.6162                 1.2669
 IR Inten    --     48.0370                16.1213                15.2932

                     67                     68                     69
                      A                      A                      A
 Frequencies --   1234.1784              1242.7084              1259.4757
 Red. masses --      1.4009                 1.7380                 1.8673
 Frc consts  --      1.2573                 1.5814                 1.7452
 IR Inten    --      7.6351                 6.3837                34.2300

                     70                     71                     72
                      A                      A                      A
 Frequencies --   1264.7351              1290.3587              1299.6272
 Red. masses --      1.7138                 1.5980                 1.3343
 Frc consts  --      1.6152                 1.5677                 1.3278
 IR Inten    --     13.1302                 8.1666                 5.6122

                     73                     74                     75
                      A                      A                      A
 Frequencies --   1325.2752              1330.4840              1362.3068
 Red. masses --      2.8017                 1.3904                 1.3343
 Frc consts  --      2.8993                 1.4502                 1.4590
 IR Inten    --     11.4664                 2.4861                 6.6429

                     76                     77                     78
                      A                      A                      A
 Frequencies --   1375.9978              1376.6334              1382.2916
 Red. masses --      1.2916                 1.4980                 1.4546
 Frc consts  --      1.4409                 1.6726                 1.6375
 IR Inten    --    205.3879                35.0162                27.3961

                     79                     80                     81
                      A                      A                      A
 Frequencies --   1411.5950              1449.6677              1459.6486
 Red. masses --      1.5812                 1.2610                 1.4267
 Frc consts  --      1.8564                 1.5614                 1.7909
 IR Inten    --     24.2317                58.2093               308.4137

                     82                     83                     84
                      A                      A                      A
 Frequencies --   1484.8007              1486.8594              1491.5796
 Red. masses --      1.0483                 1.0734                 1.0645
 Frc consts  --      1.3617                 1.3982                 1.3954
 IR Inten    --     44.0056                 9.2768                14.1653

                     85                     86                     87
                      A                      A                      A
 Frequencies --   1496.6739              1506.6312              1520.7881
 Red. masses --      1.1736                 1.0914                 1.2237
 Frc consts  --      1.5489                 1.4597                 1.6675
 IR Inten    --   1220.2431                21.6186                 4.0203

                     88                     89                     90
                      A                      A                      A
 Frequencies --   1530.4478              1587.5079              1631.8924
 Red. masses --      1.7750                 1.3238                 1.1456
 Frc consts  --      2.4496                 1.9656                 1.7975
 IR Inten    --      2.1590                88.0427               262.0724

                     91                     92                     93
                      A                      A                      A
 Frequencies --   1651.7066              1660.5738              1689.3484
 Red. masses --      1.3545                 1.0781                 2.5380
 Frc consts  --      2.1772                 1.7516                 4.2675
 IR Inten    --      9.3688                79.0544                50.1753

                     94                     95                     96
                      A                      A                      A
 Frequencies --   1692.9138              1712.3486              1742.2721
 Red. masses --      1.1983                 3.2929                 1.0959
 Frc consts  --      2.0234                 5.6886                 1.9601
 IR Inten    --     88.8806                73.6004               797.0377

                     97                     98                     99
                      A                      A                      A
 Frequencies --   1771.5855              2960.1184              2983.9969
 Red. masses --      1.0551                 1.0784                 1.0791
 Frc consts  --      1.9510                 5.5673                 5.6613
 IR Inten    --    137.4106              1744.0250               185.1579

                    100                    101                    102
                      A                      A                      A
 Frequencies --   3002.9949              3015.5819              3091.5825
 Red. masses --      1.0586                 1.0664                 1.0632
 Frc consts  --      5.6246                 5.7137                 5.9874
 IR Inten    --     31.8322               329.0684                16.9448

                    103                    104                    105
                      A                      A                      A
 Frequencies --   3102.3203              3108.3686              3115.8993
 Red. masses --      1.0683                 1.0886                 1.0906
 Frc consts  --      6.0581                 6.1967                 6.2385
 IR Inten    --     11.1907                18.7269                24.9523

                    106                    107                    108
                      A                      A                      A
 Frequencies --   3131.3909              3144.5403              3149.9998
 Red. masses --      1.0906                 1.1049                 1.1042
 Frc consts  --      6.3007                 6.4372                 6.4553
 IR Inten    --   1443.3289                 1.4923                19.8630

                    109                    110                    111
                      A                      A                      A
 Frequencies --   3162.7030              3167.0531              3209.1296
 Red. masses --      1.1040                 1.0469                 1.0921
 Frc consts  --      6.5061                 6.1866                 6.6268
 IR Inten    --     47.4079               214.3141                 1.3496

                    112                    113                    114
                      A                      A                      A
 Frequencies --   3222.6009              3237.7827              3251.8612
 Red. masses --      1.0927                 1.0917                 1.1001
 Frc consts  --      6.6862                 6.7431                 6.8539
 IR Inten    --     14.8005                 0.5718                 0.1746

                    115                    116                    117
                      A                      A                      A
 Frequencies --   3505.4688              3647.7682              3924.1407
 Red. masses --      1.0628                 1.0594                 1.0663
 Frc consts  --      7.6950                 8.3056                 9.6740
 IR Inten    --    596.8511               365.2271                90.1484

                    118                    119                    120
                      A                      A                      A
 Frequencies --   3935.1860              3938.1913              3940.5126
 Red. masses --      1.0681                 1.0665                 1.0705
 Frc consts  --      9.7455                 9.7453                 9.7935
 IR Inten    --     94.2097               106.8804               140.0577

 - Thermochemistry -
 -------------------
 Temperature   298.150 Kelvin.  Pressure   1.00000 Atm.
 Atom     1 has atomic number  7 and mass  14.00307

 Molecular mass:   253.17635 amu.
 Principal axes and moments of inertia in atomic units:
                           1         2         3
     Eigenvalues --  3205.495046479.367897666.46378
           X            1.00000  -0.00077   0.00039
           Y            0.00077   0.99999   0.00466
           Z           -0.00039  -0.00466   0.99999
 This molecule is an asymmetric top.
 Rotational symmetry number  1.
 Warning -- assumption of classical behavior for rotation
           may cause significant error
 Rotational temperatures (Kelvin)      0.02702     0.01337     0.01130
 Rotational constants (GHZ):           0.56301     0.27854     0.23541
    1 imaginary frequencies ignored.
 Zero-point vibrational energy     953924.5 (Joules/Mol)
                                  227.99343 (Kcal/Mol)
 Warning -- explicit consideration of  34 degrees of freedom as
           vibrations may cause significant error
 Vibrational temperatures:     26.11    36.97    72.90    87.40   103.24
          (Kelvin)            105.25   123.47   139.30   146.98   176.46
                              206.02   241.61   249.64   274.02   313.15
                              350.91   365.00   382.11   390.74   425.91
                              451.50   456.50   463.31   474.52   529.89
                              581.75   591.17   602.73   632.78   738.06
                              760.10   793.57   814.81   835.45   893.93
                              936.38   953.66   967.16   992.79  1047.95
                             1056.78  1115.48  1131.57  1190.44  1209.61
                             1231.21  1324.68  1352.40  1360.80  1378.95
                             1407.51  1419.08  1424.70  1455.98  1482.61
                             1519.19  1521.70  1539.71  1544.95  1600.95
                             1611.32  1649.08  1665.96  1719.05  1753.49
                             1775.71  1787.98  1812.10  1819.67  1856.54
                             1869.87  1906.78  1914.27  1960.06  1979.75
                             1980.67  1988.81  2030.97  2085.75  2100.11
                             2136.30  2139.26  2146.05  2153.38  2167.71
                             2188.07  2201.97  2284.07  2347.93  2376.44
                             2389.20  2430.60  2435.73  2463.69  2506.74
                             2548.92  4258.95  4293.31  4320.64  4338.75
                             4448.10  4463.55  4472.25  4483.08  4505.37
                             4524.29  4532.15  4550.42  4556.68  4617.22
                             4636.60  4658.45  4678.70  5043.59  5248.32
                             5645.96  5661.86  5666.18  5669.52

 Zero-point correction=                           0.363331 (Hartree/Particle)
 Thermal correction to Energy=                    0.385487
 Thermal correction to Enthalpy=                  0.386432
 Thermal correction to Gibbs Free Energy=         0.311375
 Sum of electronic and zero-point Energies=           -881.096513
 Sum of electronic and thermal Energies=              -881.074357
 Sum of electronic and thermal Enthalpies=            -881.073412
 Sum of electronic and thermal Free Energies=         -881.148469

                     E (Thermal)             CV                S
                      KCal/Mol        Cal/Mol-Kelvin    Cal/Mol-Kelvin
 Total                  241.897             81.559            157.970
 Electronic               0.000              0.000              0.000
 Translational            0.889              2.981             42.487
 Rotational               0.889              2.981             33.431
 Vibrational            240.120             75.597             82.051
 Vibration     1          0.593              1.986              6.827
 Vibration     2          0.593              1.985              6.137
 Vibration     3          0.595              1.977              4.791
 Vibration     4          0.597              1.973              4.433
 Vibration     5          0.598              1.967              4.105
 Vibration     6          0.599              1.967              4.067
 Vibration     7          0.601              1.959              3.753
 Vibration     8          0.603              1.951              3.517
 Vibration     9          0.604              1.947              3.413
 Vibration    10          0.610              1.930              3.058
 Vibration    11          0.616              1.910              2.761
 Vibration    12          0.625              1.882              2.459
 Vibration    13          0.627              1.875              2.397
 Vibration    14          0.634              1.853              2.223
 Vibration    15          0.646              1.814              1.979
 Vibration    16          0.659              1.773              1.774
 Vibration    17          0.665              1.757              1.705
 Vibration    18          0.671              1.736              1.625
 Vibration    19          0.675              1.726              1.586
 Vibration    20          0.690              1.681              1.439
 Vibration    21          0.702              1.647              1.342
 Vibration    22          0.704              1.641              1.324
 Vibration    23          0.707              1.631              1.300
 Vibration    24          0.713              1.616              1.261
 Vibration    25          0.741              1.537              1.087
 Vibration    26          0.770              1.461              0.947
 Vibration    27          0.775              1.447              0.923
 Vibration    28          0.782              1.429              0.896
 Vibration    29          0.800              1.383              0.827
 Vibration    30          0.868              1.221              0.626
 Vibration    31          0.883              1.187              0.591
 Vibration    32          0.907              1.136              0.541
 Vibration    33          0.922              1.104              0.511
 Vibration    34          0.937              1.073              0.484

 Optimization completed.
    -- Stationary point found.
 Normal termination of Gaussian 16 at Wed Apr 26 06:28:58 2023.
