 Gaussian 16, Revision A.03,
 Gaussian 16:  ES64L-G16RevA.03 25-Dec-2016

 -----------------------------------------
 # wB97XD/aug-cc-pVDZ opt=(MaxStep=1) freq
 -----------------------------------------

 ----
 blah
 ----
 Symbolic Z-matrix:
 Charge =  1 Multiplicity = 1

 SCF Done:  E(RwB97XD) =  -881.460089682     A.U. after   16 cycles
 SCF Done:  E(RwB97XD) =  -881.460095743     A.U. after   11 cycles
 SCF Done:  E(RwB97XD) =  -881.460130894     A.U. after   12 cycles
 SCF Done:  E(RwB97XD) =  -881.460074038     A.U. after   12 cycles
 SCF Done:  E(RwB97XD) =  -881.460180506     A.U. after   15 cycles
 SCF Done:  E(RwB97XD) =  -881.460263451     A.U. after   12 cycles
 SCF Done:  E(RwB97XD) =  -881.457781367     A.U. after   15 cycles
 SCF Done:  E(RwB97XD) =  -881.459898179     A.U. after   12 cycles
 SCF Done:  E(RwB97XD) =  -881.460383125     A.U. after    9 cycles
 SCF Done:  E(RwB97XD) =  -881.460090239     A.U. after   15 cycles
 SCF Done:  E(RwB97XD) =  -881.463983409     A.U. after   10 cycles
 SCF Done:  E(RwB97XD) =  -881.463986449     A.U. after   11 cycles
 SCF Done:  E(RwB97XD) =  -881.463987209     A.U. after   11 cycles
 SCF Done:  E(RwB97XD) =  -881.463988105     A.U. after    9 cycles
 SCF Done:  E(RwB97XD) =  -881.463988573     A.U. after    9 cycles
 SCF Done:  E(RwB97XD) =  -881.463988761     A.U. after    9 cycles
 SCF Done:  E(RwB97XD) =  -881.463988882     A.U. after    8 cycles
 SCF Done:  E(RwB97XD) =  -881.463988934     A.U. after    7 cycles
 SCF Done:  E(RwB97XD) =  -881.463988948     A.U. after    8 cycles
 Optimization completed.
    -- Stationary point found.
 Normal termination of Gaussian 16 at Tue Mar  7 17:43:18 2023.

 ----------------------------------------------------------------------
 #N Geom=AllCheck Guess=TCheck SCRF=Check GenChk RwB97XD/Aug-CC-pVDZ Fr
 eq
 ----------------------------------------------------------------------

 Structure from the checkpoint file:  "/gscratch/scrubbed/gds001/Gau-1931.chk"
 ----
 blah
 ----
 Charge =  1 Multiplicity = 1

                         Standard orientation:
 ---------------------------------------------------------------------
 Center     Atomic      Atomic             Coordinates (Angstroms)
 Number     Number       Type             X           Y           Z
 ---------------------------------------------------------------------
      1          7           0       -1.443154    1.101324   -0.971735
      2          6           0       -1.850496    2.191398   -0.310084
      3          6           0       -0.989941    2.941534    0.481373
      4          6           0        0.333036    2.525702    0.607466
      5          6           0        0.769639    1.388018   -0.070627
      6          6           0       -0.167356    0.722199   -0.859751
      7          6           0        2.183743    0.877269    0.060693
      8          6           0        2.970191    0.716032   -1.252160
      9          6           0        3.957754   -0.443374   -0.975243
     10          6           0        3.647242   -0.875917    0.462758
     11          7           0        2.245340   -0.472478    0.662917
     12          6           0        1.831168   -0.502850    2.063116
     13          1           0       -2.901351    2.458170   -0.415550
     14          1           0       -1.354556    3.826721    0.998599
     15          1           0        1.025727    3.085054    1.237478
     16          1           0        0.114432   -0.166362   -1.425765
     17          1           0        2.732661    1.573393    0.722541
     18          1           0        3.472888    1.651639   -1.517352
     19          1           0        2.293863    0.466407   -2.077578
     20          1           0        5.002902   -0.135809   -1.078980
     21          1           0        3.788299   -1.269162   -1.675398
     22          1           0        4.296015   -0.347714    1.183601
     23          1           0        3.761097   -1.953088    0.638138
     24          1           0        2.439255    0.180374    2.680957
     25          1           0        1.945376   -1.520613    2.454721
     26          1           0        0.776404   -0.214327    2.146454
     27          8           0       -2.977242   -0.865370   -1.775668
     28          8           0        0.794005   -2.341289   -0.559845
     29          8           0       -1.679264   -2.450963   -0.197747
     30          1           0       -3.164029   -0.967812   -2.712562
     31          1           0        1.299473   -3.157125   -0.587025
     32          1           0       -1.946222   -2.015868    0.685255
     33          1           0       -2.435078   -0.018125   -1.638230
     34          1           0       -2.157931   -1.940566   -0.922224
     35          1           0       -0.653843   -2.419012   -0.331217
     36          1           0        1.357469   -1.621114   -0.102932
     37          8           0       -2.446198   -1.166503    1.857810
     38          1           0       -3.234628   -0.682565    1.519876
     39          1           0       -2.710473   -1.593891    2.676819
     40          8           0       -4.421612    0.011080    0.460911
     41          1           0       -5.370587   -0.020606    0.604937
     42          1           0       -4.259854   -0.335620   -0.431773
 ---------------------------------------------------------------------

 SCF Done:  E(RwB97XD) =  -881.463988948     A.U. after    2 cycles

 The electronic state is 1-A.
 Alpha  occ. eigenvalues --  -19.45359 -19.41041 -19.40942 -19.40287 -19.40100
 Alpha  occ. eigenvalues --  -14.58765 -14.58335 -10.46007 -10.45792 -10.45233
 Alpha  occ. eigenvalues --  -10.43958 -10.43706 -10.43444 -10.43131 -10.42841
 Alpha  occ. eigenvalues --  -10.40672 -10.40289  -1.31635  -1.25692  -1.25149
 Alpha  occ. eigenvalues --   -1.24339  -1.23716  -1.18282  -1.17035  -1.04102
 Alpha  occ. eigenvalues --   -1.00647  -0.99567  -0.93826  -0.89169  -0.85812
 Alpha  occ. eigenvalues --   -0.84661  -0.81084  -0.79925  -0.79595  -0.79235
 Alpha  occ. eigenvalues --   -0.77565  -0.76483  -0.75675  -0.74551  -0.72890
 Alpha  occ. eigenvalues --   -0.71011  -0.70053  -0.68831  -0.66366  -0.65567
 Alpha  occ. eigenvalues --   -0.65018  -0.64089  -0.62955  -0.62483  -0.62204
 Alpha  occ. eigenvalues --   -0.61357  -0.60467  -0.60106  -0.59627  -0.59320
 Alpha  occ. eigenvalues --   -0.58343  -0.56574  -0.55528  -0.55316  -0.54819
 Alpha  occ. eigenvalues --   -0.54620  -0.54096  -0.53604  -0.53124  -0.51753
 Alpha  occ. eigenvalues --   -0.49086  -0.48539  -0.45786  -0.44937
 Alpha virt. eigenvalues --   -0.09062  -0.07595  -0.06802  -0.05367  -0.05009
 Alpha virt. eigenvalues --   -0.04399  -0.03367  -0.03141  -0.02990  -0.02367
 Alpha virt. eigenvalues --   -0.01880  -0.01474  -0.00889  -0.00624  -0.00524

 Mulliken charges:
               1
     1  N   -0.610407
     2  C    0.522535
     3  C    0.385295
     4  C    1.280691
     5  C    0.616136
     6  C    1.091056
     7  C    1.311971
     8  C    1.027319
     9  C    0.815508
    10  C    1.260353
    11  N   -1.632498
    12  C    1.131229
    13  H   -0.703121
    14  H   -0.618135
    15  H   -0.933431
    16  H   -1.314008
    17  H   -0.818684
    18  H   -0.521258
    19  H   -0.300124
    20  H   -0.287008
    21  H   -0.306701
    22  H   -0.524693
    23  H   -0.566439
    24  H   -0.185582
    25  H   -0.233705
    26  H   -0.131058
    27  O   -0.811241
    28  O   -0.503139
    29  O   -0.512595
    30  H    0.246624
    31  H    0.153934
    32  H    0.485629
    33  H    0.467234
    34  H    0.452670
    35  H    0.526398
    36  H    0.712993
    37  O   -0.445211
    38  H    0.274610
    39  H    0.192399
    40  O   -0.368985
    41  H    0.208643
    42  H    0.164794
 Sum of Mulliken charges =   1.00000

 Dipole moment (field-independent basis, Debye):
    X=             -2.5965    Y=             -1.8830    Z=              0.8426  Tot=              3.3162
 Quadrupole moment (field-independent basis, Debye-Ang):
   XX=            -47.9210   YY=            -81.5241   ZZ=            -86.9046
   XY=              0.6799   XZ=              1.1214   YZ=              1.4133

  Exact polarizability: 199.215 -12.874 165.735   4.755  10.979 148.829
 Approx polarizability: 199.822  -8.935 184.829   7.830  18.511 172.335

                      1                      2                      3
                      A                      A                      A
 Frequencies --     17.5703                22.4643                52.3770
 Red. masses --      5.0039                 4.8728                 4.1572
 Frc consts  --      0.0009                 0.0014                 0.0067
 IR Inten    --      0.5960                 0.0603                 1.2098

                      4                      5                      6
                      A                      A                      A
 Frequencies --     56.4531                60.2206                65.3429
 Red. masses --      4.4692                 3.1378                 3.3862
 Frc consts  --      0.0084                 0.0067                 0.0085
 IR Inten    --      1.1951                 0.4295                 0.8007

                      7                      8                      9
                      A                      A                      A
 Frequencies --     84.1051                91.6929               102.2066
 Red. masses --      5.0524                 4.3715                 4.6491
 Frc consts  --      0.0211                 0.0217                 0.0286
 IR Inten    --      0.2005                 0.3097                 0.3219

                     10                     11                     12
                      A                      A                      A
 Frequencies --    119.1405               124.5768               167.6507
 Red. masses --      5.2790                 4.4285                 2.1859
 Frc consts  --      0.0441                 0.0405                 0.0362
 IR Inten    --      2.3127                 0.5978                 7.7235

                     13                     14                     15
                      A                      A                      A
 Frequencies --    179.2074               192.4534               209.8964
 Red. masses --      4.2753                 5.1707                 3.3544
 Frc consts  --      0.0809                 0.1128                 0.0871
 IR Inten    --      9.8450                 1.7462                16.6798

                     16                     17                     18
                      A                      A                      A
 Frequencies --    226.4950               255.3276               258.3280
 Red. masses --      3.7397                 1.2872                 3.2109
 Frc consts  --      0.1130                 0.0494                 0.1262
 IR Inten    --     32.7687                 2.5858                 3.6203

                     19                     20                     21
                      A                      A                      A
 Frequencies --    269.4249               272.2579               287.3716
 Red. masses --      2.0213                 1.5808                 1.2497
 Frc consts  --      0.0864                 0.0690                 0.0608
 IR Inten    --     24.3397                91.5778                56.6425

                     22                     23                     24
                      A                      A                      A
 Frequencies --    309.6106               322.4150               325.8716
 Red. masses --      2.5333                 4.1138                 1.4209
 Frc consts  --      0.1431                 0.2520                 0.0889
 IR Inten    --     78.3542                 3.8329                19.9768

                     25                     26                     27
                      A                      A                      A
 Frequencies --    349.2690               364.4726               384.5121
 Red. masses --      2.8053                 2.9578                 1.1701
 Frc consts  --      0.2016                 0.2315                 0.1019
 IR Inten    --     34.6721                79.3748                43.8237

                     28                     29                     30
                      A                      A                      A
 Frequencies --    403.2679               422.2828               442.4371
 Red. masses --      2.8890                 3.0910                 3.2842
 Frc consts  --      0.2768                 0.3248                 0.3788
 IR Inten    --      3.7040                 6.2980                19.0722

                     31                     32                     33
                      A                      A                      A
 Frequencies --    488.4364               528.3246               547.6295
 Red. masses --      1.1436                 1.1806                 2.8045
 Frc consts  --      0.1607                 0.1942                 0.4955
 IR Inten    --    190.2405               101.1075                26.7959

                     34                     35                     36
                      A                      A                      A
 Frequencies --    577.4689               607.8396               618.3075
 Red. masses --      2.8821                 1.0629                 1.2206
 Frc consts  --      0.5663                 0.2314                 0.2749
 IR Inten    --      4.6848                39.5640                74.8744

                     37                     38                     39
                      A                      A                      A
 Frequencies --    636.8558               661.8110               678.3870
 Red. masses --      2.5083                 5.5321                 5.2779
 Frc consts  --      0.5994                 1.4276                 1.4311
 IR Inten    --     16.0715                31.6561                 0.8131

                     40                     41                     42
                      A                      A                      A
 Frequencies --    692.5929               739.8671               773.4814
 Red. masses --      1.1956                 1.9285                 1.0360
 Frc consts  --      0.3379                 0.6220                 0.3652
 IR Inten    --     60.9748                29.4051                43.9020

                     43                     44                     45
                      A                      A                      A
 Frequencies --    781.5884               836.1740               836.5904
 Red. masses --      1.4557                 1.5576                 1.2519
 Frc consts  --      0.5239                 0.6416                 0.5162
 IR Inten    --     20.5774                32.7411                 1.0762

                     46                     47                     48
                      A                      A                      A
 Frequencies --    845.2147               931.4756               933.4015
 Red. masses --      1.8744                 1.7599                 2.9861
 Frc consts  --      0.7890                 0.8996                 1.5328
 IR Inten    --     22.7714                23.9341                 0.9081

                     49                     50                     51
                      A                      A                      A
 Frequencies --    951.1710               954.5843               979.4426
 Red. masses --      1.6147                 1.3748                 1.2947
 Frc consts  --      0.8607                 0.7381                 0.7318
 IR Inten    --     12.5965                34.2444                 2.6527

                     52                     53                     54
                      A                      A                      A
 Frequencies --    987.2164              1000.4392              1010.9673
 Red. masses --      1.5101                 1.1289                 1.8104
 Frc consts  --      0.8671                 0.6657                 1.0902
 IR Inten    --      0.4796                20.3095                 9.1439

                     55                     56                     57
                      A                      A                      A
 Frequencies --   1027.4043              1054.9924              1057.0469
 Red. masses --      1.4047                 4.8158                 2.2588
 Frc consts  --      0.8736                 3.1581                 1.4870
 IR Inten    --      0.8555                 5.3114                 8.2609

                     58                     59                     60
                      A                      A                      A
 Frequencies --   1070.3963              1072.3371              1088.6100
 Red. masses --      1.2227                 1.8233                 1.8083
 Frc consts  --      0.8254                 1.2353                 1.2626
 IR Inten    --     38.8304                 9.3650                33.9843

                     61                     62                     63
                      A                      A                      A
 Frequencies --   1118.9753              1149.4913              1151.0567
 Red. masses --      2.2708                 1.3110                 1.2494
 Frc consts  --      1.6752                 1.0206                 0.9753
 IR Inten    --      6.6403                24.2673                20.9328

                     64                     65                     66
                      A                      A                      A
 Frequencies --   1163.3894              1196.2955              1219.8682
 Red. masses --      1.1999                 1.7733                 1.5157
 Frc consts  --      0.9568                 1.4952                 1.3289
 IR Inten    --     56.1603                21.6003                20.8758

                     67                     68                     69
                      A                      A                      A
 Frequencies --   1238.1720              1241.3768              1258.9921
 Red. masses --      1.4579                 1.7651                 1.7409
 Frc consts  --      1.3168                 1.6026                 1.6258
 IR Inten    --      5.4120                 7.0119                23.8404

                     70                     71                     72
                      A                      A                      A
 Frequencies --   1264.6614              1288.9400              1299.2565
 Red. masses --      1.7169                 1.5708                 1.3453
 Frc consts  --      1.6178                 1.5376                 1.3380
 IR Inten    --     13.9456                 4.1569                 6.3964

                     73                     74                     75
                      A                      A                      A
 Frequencies --   1320.2418              1330.9640              1344.8028
 Red. masses --      3.8631                 1.3890                 1.0914
 Frc consts  --      3.9672                 1.4497                 1.1630
 IR Inten    --      4.5943                 1.8407               239.1423

                     76                     77                     78
                      A                      A                      A
 Frequencies --   1366.3559              1376.1849              1381.7366
 Red. masses --      1.3388                 1.4604                 1.4823
 Frc consts  --      1.4727                 1.6296                 1.6674
 IR Inten    --      4.5553                 6.8753                 6.7822

                     79                     80                     81
                      A                      A                      A
 Frequencies --   1413.6569              1450.6593              1484.7946
 Red. masses --      1.6035                 1.1984                 1.4128
 Frc consts  --      1.8880                 1.4859                 1.8351
 IR Inten    --      3.3282                 4.0163                16.9989

                     82                     83                     84
                      A                      A                      A
 Frequencies --   1486.1624              1488.7319              1492.5459
 Red. masses --      1.2513                 1.2101                 1.0621
 Frc consts  --      1.6284                 1.5801                 1.3940
 IR Inten    --     23.5834                 6.5120                 7.2501

                     85                     86                     87
                      A                      A                      A
 Frequencies --   1506.8765              1521.7975              1535.7175
 Red. masses --      1.0954                 1.1586                 2.2056
 Frc consts  --      1.4655                 1.5808                 3.0648
 IR Inten    --     12.8002                10.9047                10.0210

                     88                     89                     90
                      A                      A                      A
 Frequencies --   1609.4400              1642.0030              1653.6737
 Red. masses --      1.0774                 1.0799                 1.0846
 Frc consts  --      1.6442                 1.7155                 1.7476
 IR Inten    --     65.1712               156.3782                33.8360

                     91                     92                     93
                      A                      A                      A
 Frequencies --   1666.2710              1670.1560              1690.9825
 Red. masses --      2.2907                 1.4356                 5.3631
 Frc consts  --      3.7473                 2.3593                 9.0353
 IR Inten    --     14.5923                13.1727                16.3717

                     94                     95                     96
                      A                      A                      A
 Frequencies --   1715.4922              1774.3461              2428.2389
 Red. masses --      1.0557                 1.0418                 1.1167
 Frc consts  --      1.8306                 1.9325                 3.8793
 IR Inten    --     11.3151                24.1990              2999.6078

                     97                     98                     99
                      A                      A                      A
 Frequencies --   2734.7417              2749.6401              2847.3012
 Red. masses --      1.0866                 1.0938                 1.0662
 Frc consts  --      4.7878                 4.8724                 5.0926
 IR Inten    --   1250.3267              1275.4075              2353.2791

                    100                    101                    102
                      A                      A                      A
 Frequencies --   2986.8998              3009.6326              3015.0132
 Red. masses --      1.0837                 1.0513                 1.0647
 Frc consts  --      5.6966                 5.6105                 5.7025
 IR Inten    --      8.6431                10.5032                36.8340

                    103                    104                    105
                      A                      A                      A
 Frequencies --   3070.7456              3093.8028              3102.7364
 Red. masses --      1.0562                 1.0638                 1.0687
 Frc consts  --      5.8679                 5.9993                 6.0616
 IR Inten    --    883.6400                12.5183                20.3123

                    106                    107                    108
                      A                      A                      A
 Frequencies --   3110.4739              3115.3440              3145.5605
 Red. masses --      1.0902                 1.0897                 1.1053
 Frc consts  --      6.2145                 6.2310                 6.4433
 IR Inten    --     14.8425                33.4862                 0.1388

                    109                    110                    111
                      A                      A                      A
 Frequencies --   3150.0448              3162.9330              3199.6235
 Red. masses --      1.1047                 1.1055                 1.0920
 Frc consts  --      6.4583                 6.5159                 6.5867
 IR Inten    --     12.8747                21.4339                 1.3571

                    112                    113                    114
                      A                      A                      A
 Frequencies --   3204.6450              3219.3994              3241.9787
 Red. masses --      1.0914                 1.0921                 1.0988
 Frc consts  --      6.6038                 6.6688                 6.8044
 IR Inten    --      1.8844                 2.7480                 1.6732

                    115                    116                    117
                      A                      A                      A
 Frequencies --   3466.0274              3717.9102              3923.4988
 Red. masses --      1.0630                 1.0565                 1.0661
 Frc consts  --      7.5239                 8.6045                 9.6697
 IR Inten    --    725.4007               271.5864               123.4361

                    118                    119                    120
                      A                      A                      A
 Frequencies --   3930.3529              3931.2167              3944.0826
 Red. masses --      1.0677                 1.0661                 1.0727
 Frc consts  --      9.7172                 9.7076                 9.8314
 IR Inten    --     92.5279               110.2202               151.7794

 - Thermochemistry -
 -------------------
 Temperature   298.150 Kelvin.  Pressure   1.00000 Atm.
 Atom     1 has atomic number  7 and mass  14.00307

 Molecular mass:   253.17635 amu.
 Principal axes and moments of inertia in atomic units:
                           1         2         3
     Eigenvalues --  3222.260166513.128207642.74575
           X            1.00000  -0.00063   0.00048
           Y            0.00062   0.99998   0.00650
           Z           -0.00049  -0.00650   0.99998
 This molecule is an asymmetric top.
 Rotational symmetry number  1.
 Warning -- assumption of classical behavior for rotation
           may cause significant error
 Rotational temperatures (Kelvin)      0.02688     0.01330     0.01133
 Rotational constants (GHZ):           0.56009     0.27709     0.23614
 Zero-point vibrational energy     965533.9 (Joules/Mol)
                                  230.76815 (Kcal/Mol)
 Warning -- explicit consideration of  36 degrees of freedom as
           vibrations may cause significant error
 Vibrational temperatures:     25.28    32.32    75.36    81.22    86.64
          (Kelvin)             94.01   121.01   131.93   147.05   171.42
                              179.24   241.21   257.84   276.90   301.99
                              325.88   367.36   371.68   387.64   391.72
                              413.46   445.46   463.88   468.86   502.52
                              524.39   553.23   580.21   607.57   636.57
                              702.75   760.14   787.92   830.85   874.55
                              889.61   916.29   952.20   976.05   996.49
                             1064.50  1112.87  1124.53  1203.07  1203.67
                             1216.08  1340.19  1342.96  1368.52  1373.43
                             1409.20  1420.38  1439.41  1454.56  1478.21
                             1517.90  1520.85  1540.06  1542.85  1566.27
                             1609.96  1653.86  1656.11  1673.86  1721.20
                             1755.12  1781.45  1786.06  1811.41  1819.57
                             1854.50  1869.34  1899.53  1914.96  1934.87
                             1965.88  1980.02  1988.01  2033.94  2087.18
                             2136.29  2138.26  2141.95  2147.44  2168.06
                             2189.53  2209.55  2315.63  2362.48  2379.27
                             2397.39  2402.98  2432.95  2468.21  2552.89
                             3493.69  3934.68  3956.12  4096.63  4297.48
                             4330.19  4337.93  4418.12  4451.29  4464.15
                             4475.28  4482.29  4525.76  4532.21  4550.76
                             4603.54  4610.77  4632.00  4664.48  4986.84
                             5349.24  5645.04  5654.90  5656.14  5674.66

 Zero-point correction=                           0.367752 (Hartree/Particle)
 Thermal correction to Energy=                    0.390432
 Thermal correction to Enthalpy=                  0.391376
 Thermal correction to Gibbs Free Energy=         0.314885
 Sum of electronic and zero-point Energies=           -881.096236
 Sum of electronic and thermal Energies=              -881.073557
 Sum of electronic and thermal Enthalpies=            -881.072613
 Sum of electronic and thermal Free Energies=         -881.149104

                     E (Thermal)             CV                S
                      KCal/Mol        Cal/Mol-Kelvin    Cal/Mol-Kelvin
 Total                  245.000             82.752            160.989
 Electronic               0.000              0.000              0.000
 Translational            0.889              2.981             42.487
 Rotational               0.889              2.981             33.439
 Vibrational            243.222             76.791             85.064
 Vibration     1          0.593              1.986              6.891
 Vibration     2          0.593              1.985              6.403
 Vibration     3          0.596              1.977              4.726
 Vibration     4          0.596              1.975              4.577
 Vibration     5          0.597              1.973              4.450
 Vibration     6          0.597              1.971              4.289
 Vibration     7          0.601              1.960              3.793
 Vibration     8          0.602              1.955              3.624
 Vibration     9          0.604              1.947              3.412
 Vibration    10          0.609              1.933              3.114
 Vibration    11          0.610              1.928              3.028
 Vibration    12          0.624              1.882              2.462
 Vibration    13          0.629              1.868              2.337
 Vibration    14          0.634              1.850              2.204
 Vibration    15          0.642              1.826              2.045
 Vibration    16          0.650              1.801              1.907
 Vibration    17          0.666              1.754              1.694
 Vibration    18          0.667              1.749              1.673
 Vibration    19          0.674              1.729              1.600
 Vibration    20          0.675              1.724              1.582
 Vibration    21          0.685              1.697              1.489
 Vibration    22          0.699              1.655              1.364
 Vibration    23          0.707              1.631              1.298
 Vibration    24          0.710              1.624              1.280
 Vibration    25          0.727              1.577              1.169
 Vibration    26          0.738              1.545              1.103
 Vibration    27          0.753              1.503              1.021
 Vibration    28          0.769              1.463              0.951
 Vibration    29          0.785              1.422              0.884
 Vibration    30          0.802              1.378              0.819
 Vibration    31          0.844              1.276              0.688
 Vibration    32          0.883              1.187              0.591
 Vibration    33          0.903              1.145              0.549
 Vibration    34          0.934              1.080              0.490
 Vibration    35          0.967              1.015              0.436
 Vibration    36          0.978              0.993              0.419

 Optimization completed.
    -- Stationary point found.
 Normal termination of Gaussian 16 at Tue Mar  7 19:17:44 2023.
