 Gaussian 16, Revision A.03,
 Gaussian 16:  ES64L-G16RevA.03 25-Dec-2016

 -----------------------------------------
 # wB97XD/aug-cc-pVDZ Temperature=130 Freq
 -----------------------------------------

 ---------------------------
 p-Py Nicotine, W anti, 3H2O
 ---------------------------
 Symbolic Z-matrix:
 Charge =  1 Multiplicity = 1

                         Standard orientation:
 ---------------------------------------------------------------------
 Center     Atomic      Atomic             Coordinates (Angstroms)
 Number     Number       Type             X           Y           Z
 ---------------------------------------------------------------------
      1          7           0       -1.849449    0.314064    0.620184
      2          6           0       -1.520545   -0.947381   -0.056776
      3          6           0       -2.085190   -0.746077   -1.475440
      4          6           0       -3.273471    0.224794   -1.274489
      5          6           0       -3.243904    0.562681    0.222076
      6          6           0       -0.049892   -1.287898   -0.010935
      7          6           0        0.912948   -0.363743   -0.400925
      8          7           0        2.214443   -0.677764   -0.363069
      9          6           0        2.665964   -1.877626    0.033348
     10          6           0        1.762393   -2.847709    0.422559
     11          6           0        0.400660   -2.542741    0.405428
     12          8           0        3.705968    1.459355   -0.749585
     13          8           0       -0.450239    2.496856   -0.370890
     14          1           0       -3.522911    1.598775    0.449311
     15          1           0       -4.229200   -0.225513   -1.559951
     16          1           0       -3.140644    1.125329   -1.884040
     17          1           0       -2.379214   -1.702094   -1.921055
     18          1           0       -1.321590   -0.301020   -2.124963
     19          1           0       -3.923452   -0.099969    0.788232
     20          1           0       -2.066995   -1.775991    0.434872
     21          1           0        0.674759    0.643158   -0.740444
     22          1           0        3.743934   -2.018475    0.031399
     23          1           0        2.119815   -3.822569    0.745159
     24          1           0       -0.322049   -3.293966    0.725189
     25          6           0       -1.661920    0.274369    2.066233
     26          1           0        2.893757    0.088564   -0.623077
     27          1           0       -1.018966    1.771520   -0.004678
     28          1           0       -1.029768    3.181732   -0.710959
     29          1           0        3.192621    2.112716   -0.222192
     30          1           0        4.074444    1.912352   -1.510908
     31          8           0        1.981307    2.737590    0.810768
     32          1           0        2.115626    3.458452    1.429450
     33          1           0        1.076286    2.827497    0.450726
     34          1           0       -1.972725    1.232071    2.498997
     35          1           0       -0.602146    0.122467    2.305550
     36          1           0       -2.255082   -0.531561    2.534763
 ---------------------------------------------------------------------

 SCF Done:  E(RwB97XD) =  -728.598495378     A.U. after   16 cycles

 The electronic state is 1-A.
 Alpha  occ. eigenvalues --  -19.39547 -19.39036 -19.38597 -14.67855 -14.58657
 Alpha  occ. eigenvalues --  -10.51370 -10.50934 -10.48208 -10.47706 -10.47225
 Alpha  occ. eigenvalues --  -10.46935 -10.43941 -10.43590 -10.42032 -10.41103
 Alpha  occ. eigenvalues --   -1.26262  -1.24202  -1.23442  -1.22141  -1.18036
 Alpha  occ. eigenvalues --   -1.08704  -1.05074  -1.01065  -0.96425  -0.90997
 Alpha  occ. eigenvalues --   -0.90161  -0.89243  -0.83013  -0.80299  -0.80109
 Alpha  occ. eigenvalues --   -0.75679  -0.75178  -0.75064  -0.74240  -0.73602
 Alpha  occ. eigenvalues --   -0.71529  -0.70136  -0.69104  -0.68295  -0.66138
 Alpha  occ. eigenvalues --   -0.64960  -0.64298  -0.63215  -0.62163  -0.61601
 Alpha  occ. eigenvalues --   -0.59396  -0.58935  -0.57942  -0.57794  -0.56934
 Alpha  occ. eigenvalues --   -0.56186  -0.54500  -0.53730  -0.53277  -0.52757
 Alpha  occ. eigenvalues --   -0.52502  -0.51936  -0.49745  -0.45071
 Alpha virt. eigenvalues --   -0.14247  -0.11380  -0.06575  -0.05636  -0.05069
 Alpha virt. eigenvalues --   -0.04471  -0.03798  -0.03248  -0.03141  -0.02741
 Alpha virt. eigenvalues --   -0.02142  -0.01610  -0.01076  -0.00732  -0.00423

 Mulliken charges:
               1
     1  N   -1.248383
     2  C    1.391187
     3  C    1.006360
     4  C    0.796774
     5  C    1.255060
     6  C    0.756516
     7  C    0.617592
     8  N   -0.003934
     9  C    0.696240
    10  C    0.390298
    11  C    1.206346
    12  O   -0.440863
    13  O   -0.455245
    14  H   -0.564424
    15  H   -0.270989
    16  H   -0.284958
    17  H   -0.511719
    18  H   -0.304658
    19  H   -0.555756
    20  H   -0.852935
    21  H   -1.184806
    22  H   -0.610703
    23  H   -0.556742
    24  H   -0.895582
    25  C    0.941835
    26  H    0.083428
    27  H    0.533955
    28  H    0.167379
    29  H    0.235351
    30  H    0.162714
    31  O   -0.400778
    32  H    0.169867
    33  H    0.263373
    34  H   -0.210321
    35  H   -0.141731
    36  H   -0.179750
 Sum of Mulliken charges =   1.00000

 Dipole moment (field-independent basis, Debye):
    X=              1.4839    Y=             -1.2451    Z=             -0.1379  Tot=              1.9420
 Quadrupole moment (field-independent basis, Debye-Ang):
   XX=            -55.7656   YY=            -55.5353   ZZ=            -83.2173
   XY=             -4.2568   XZ=             -3.2408   YZ=             -2.6878

  Exact polarizability: 178.314  -8.901 156.588   0.426  -7.399 123.238
 Approx polarizability: 181.821  -3.539 174.890  -1.647 -12.555 140.264

                      1                      2                      3
                      A                      A                      A
 Frequencies --     28.1673                33.7147                55.1182
 Red. masses --      3.8895                 4.8180                 4.4391
 Frc consts  --      0.0018                 0.0032                 0.0079
 IR Inten    --      0.3432                 1.7831                 1.0826

                      4                      5                      6
                      A                      A                      A
 Frequencies --     62.0339                76.1557                81.8573
 Red. masses --      4.3833                 3.4038                 2.8665
 Frc consts  --      0.0099                 0.0116                 0.0113
 IR Inten    --      0.1900                 0.4588                 1.0067

                      7                      8                      9
                      A                      A                      A
 Frequencies --    101.9350               117.9765               155.8206
 Red. masses --      4.4796                 3.9173                 2.0648
 Frc consts  --      0.0274                 0.0321                 0.0295
 IR Inten    --      3.7309                 1.9892                 1.2913

                     10                     11                     12
                      A                      A                      A
 Frequencies --    173.4252               203.3909               227.3779
 Red. masses --      4.5071                 3.0518                 1.3300
 Frc consts  --      0.0799                 0.0744                 0.0405
 IR Inten    --     11.7556                 3.2267                17.9517

                     13                     14                     15
                      A                      A                      A
 Frequencies --    238.0264               246.2516               250.3065
 Red. masses --      2.6363                 1.3203                 1.2070
 Frc consts  --      0.0880                 0.0472                 0.0446
 IR Inten    --     29.9499                 7.5519               136.2875

                     16                     17                     18
                      A                      A                      A
 Frequencies --    259.6912               266.4638               272.2297
 Red. masses --      1.9907                 2.0069                 1.9089
 Frc consts  --      0.0791                 0.0840                 0.0834
 IR Inten    --     86.8527                54.0982                25.0115

                     19                     20                     21
                      A                      A                      A
 Frequencies --    306.0996               313.6341               400.7092
 Red. masses --      4.7136                 4.0769                 2.8430
 Frc consts  --      0.2602                 0.2363                 0.2690
 IR Inten    --      5.7148                 7.3114                 6.6920

                     22                     23                     24
                      A                      A                      A
 Frequencies --    416.0535               418.2284               470.8207
 Red. masses --      2.9952                 2.9206                 1.0825
 Frc consts  --      0.3055                 0.3010                 0.1414
 IR Inten    --     14.2477                 9.1150                29.7594

                     25                     26                     27
                      A                      A                      A
 Frequencies --    515.9489               551.6983               564.5451
 Red. masses --      1.2263                 2.4673                 1.1906
 Frc consts  --      0.1923                 0.4425                 0.2236
 IR Inten    --     45.5152                10.8757                45.9450

                     28                     29                     30
                      A                      A                      A
 Frequencies --    583.5337               637.8463               649.0749
 Red. masses --      2.9572                 4.5323                 3.5644
 Frc consts  --      0.5933                 1.0864                 0.8848
 IR Inten    --      5.6869                18.6213                 3.3778

                     31                     32                     33
                      A                      A                      A
 Frequencies --    672.9370               714.6814               758.6411
 Red. masses --      5.3804                 1.9221                 1.1227
 Frc consts  --      1.4355                 0.5784                 0.3807
 IR Inten    --      5.7724                51.6870               217.6434

                     34                     35                     36
                      A                      A                      A
 Frequencies --    781.7780               838.1266               839.6739
 Red. masses --      1.4229                 1.5966                 2.2349
 Frc consts  --      0.5124                 0.6608                 0.9284
 IR Inten    --      1.1102                40.0636                 1.9909

                     37                     38                     39
                      A                      A                      A
 Frequencies --    873.4602               892.6755               934.4323
 Red. masses --      1.0628                 1.0966                 2.2724
 Frc consts  --      0.4778                 0.5149                 1.1690
 IR Inten    --     76.7909                61.0939                 4.2244

                     40                     41                     42
                      A                      A                      A
 Frequencies --    942.6553               955.0292               982.2218
 Red. masses --      1.9742                 2.4270                 1.4786
 Frc consts  --      1.0336                 1.3042                 0.8405
 IR Inten    --     18.9497                11.8053                 0.8936

                     43                     44                     45
                      A                      A                      A
 Frequencies --    988.7333              1012.6357              1036.1651
 Red. masses --      1.4578                 1.7382                 1.3755
 Frc consts  --      0.8396                 1.0502                 0.8701
 IR Inten    --      6.9038                11.4054                 0.7644

                     46                     47                     48
                      A                      A                      A
 Frequencies --   1045.7815              1054.7828              1074.6974
 Red. masses --      4.2462                 2.3536                 1.8546
 Frc consts  --      2.7361                 1.5428                 1.2620
 IR Inten    --      3.3100                 1.6311                16.4038

                     49                     50                     51
                      A                      A                      A
 Frequencies --   1092.7558              1117.1889              1143.0693
 Red. masses --      2.1870                 2.3369                 1.2844
 Frc consts  --      1.5387                 1.7185                 0.9888
 IR Inten    --      3.3982                 9.7090                 3.4398

                     52                     53                     54
                      A                      A                      A
 Frequencies --   1150.5041              1197.9957              1214.8294
 Red. masses --      1.5155                 1.8689                 1.3047
 Frc consts  --      1.1819                 1.5804                 1.1344
 IR Inten    --      8.7169                17.1596                 8.7028

                     55                     56                     57
                      A                      A                      A
 Frequencies --   1223.1003              1226.3747              1242.9133
 Red. masses --      1.1105                 1.4384                 1.6976
 Frc consts  --      0.9788                 1.2746                 1.5452
 IR Inten    --     35.2716                 5.4297                 6.6901

                     58                     59                     60
                      A                      A                      A
 Frequencies --   1258.2180              1263.7302              1292.3483
 Red. masses --      1.8475                 1.7102                 1.5453
 Frc consts  --      1.7232                 1.6092                 1.5206
 IR Inten    --     15.4888                 8.5881                 2.7317

                     61                     62                     63
                      A                      A                      A
 Frequencies --   1298.6420              1328.2778              1329.6357
 Red. masses --      1.3948                 1.5361                 1.7876
 Frc consts  --      1.3859                 1.5968                 1.8621
 IR Inten    --     10.7644                12.1496                 8.1954

                     64                     65                     66
                      A                      A                      A
 Frequencies --   1358.5507              1377.5286              1382.6518
 Red. masses --      1.3534                 1.8356                 1.5282
 Frc consts  --      1.4717                 2.0523                 1.7213
 IR Inten    --      4.3968                14.1504                 4.0184

                     67                     68                     69
                      A                      A                      A
 Frequencies --   1401.5221              1441.0921              1453.3277
 Red. masses --      1.8736                 1.5122                 1.2417
 Frc consts  --      2.1683                 1.8502                 1.5453
 IR Inten    --      2.2146                21.0852                 8.2383

                     70                     71                     72
                      A                      A                      A
 Frequencies --   1482.4476              1484.6842              1488.9969
 Red. masses --      1.0464                 1.0701                 1.0726
 Frc consts  --      1.3549                 1.3898                 1.4012
 IR Inten    --     14.6616                 7.2798                 4.9566

                     73                     74                     75
                      A                      A                      A
 Frequencies --   1506.3144              1517.6637              1526.4720
 Red. masses --      1.0910                 1.6957                 1.2955
 Frc consts  --      1.4585                 2.3012                 1.7785
 IR Inten    --     10.9422                36.8514                 9.3880

                     76                     77                     78
                      A                      A                      A
 Frequencies --   1607.9507              1632.3525              1657.9835
 Red. masses --      1.1570                 1.9418                 1.1012
 Frc consts  --      1.7624                 3.0484                 1.7835
 IR Inten    --    114.8978                 7.3865                33.3925

                     79                     80                     81
                      A                      A                      A
 Frequencies --   1681.7594              1706.8934              1719.6505
 Red. masses --      1.1403                 3.4895                 2.6608
 Frc consts  --      1.9003                 5.9899                 4.6360
 IR Inten    --      8.2952                15.8429                20.6894

                     82                     83                     84
                      A                      A                      A
 Frequencies --   2888.9307              2971.5136              2998.8737
 Red. masses --      1.1027                 1.0835                 1.0498
 Frc consts  --      5.4223                 5.6369                 5.5627
 IR Inten    --   1890.7395                47.3483                43.7858

                     85                     86                     87
                      A                      A                      A
 Frequencies --   3002.4733              3089.1796              3104.6115
 Red. masses --      1.0708                 1.0637                 1.0679
 Frc consts  --      5.6872                 5.9810                 6.0643
 IR Inten    --     79.3796                14.7930                14.6334

                     88                     89                     90
                      A                      A                      A
 Frequencies --   3110.4102              3118.9942              3146.0753
 Red. masses --      1.0870                 1.0903                 1.1044
 Frc consts  --      6.1962                 6.2490                 6.4402
 IR Inten    --     17.4809                19.5212                 1.6363

                     91                     92                     93
                      A                      A                      A
 Frequencies --   3153.5166              3164.7980              3210.6452
 Red. masses --      1.1038                 1.1056                 1.0928
 Frc consts  --      6.4673                 6.5243                 6.6368
 IR Inten    --     12.5764                22.2054                 0.0176

                     94                     95                     96
                      A                      A                      A
 Frequencies --   3221.8067              3245.1481              3260.3367
 Red. masses --      1.0955                 1.0930                 1.1005
 Frc consts  --      6.7001                 6.7815                 6.8922
 IR Inten    --     51.4254                 1.1704                 9.2564

                     97                     98                     99
                      A                      A                      A
 Frequencies --   3265.1398              3462.7735              3576.5265
 Red. masses --      1.0701                 1.0629                 1.0615
 Frc consts  --      6.7216                 7.5089                 8.0000
 IR Inten    --   1233.7838               798.2928               459.9130

                    100                    101                    102
                      A                      A                      A
 Frequencies --   3943.5907              3948.5961              3951.2232
 Red. masses --      1.0673                 1.0684                 1.0690
 Frc consts  --      9.7793                 9.8144                 9.8331
 IR Inten    --     94.6180               129.5672               127.5691

 - Thermochemistry -
 -------------------
 Temperature   130.000 Kelvin.  Pressure   1.00000 Atm.
 Atom     1 has atomic number  7 and mass  14.00307

 Molecular mass:   217.15522 amu.
 Principal axes and moments of inertia in atomic units:
                           1         2         3
     Eigenvalues --  2783.810094346.638315894.40167
           X            0.99994   0.01071  -0.00140
           Y           -0.01071   0.99994  -0.00274
           Z            0.00137   0.00275   1.00000
 This molecule is an asymmetric top.
 Rotational symmetry number  1.
 Warning -- assumption of classical behavior for rotation
           may cause significant error
 Rotational temperatures (Kelvin)      0.03111     0.01993     0.01469
 Rotational constants (GHZ):           0.64830     0.41520     0.30618
 Zero-point vibrational energy     835710.2 (Joules/Mol)
                                  199.73953 (Kcal/Mol)
 Warning -- explicit consideration of  17 degrees of freedom as
           vibrations may cause significant error
 Vibrational temperatures:     40.53    48.51    79.30    89.25   109.57
          (Kelvin)            117.77   146.66   169.74   224.19   249.52
                              292.63   327.15   342.47   354.30   360.14
                              373.64   383.38   391.68   440.41   451.25
                              576.53   598.61   601.74   677.41   742.34
                              793.77   812.25   839.57   917.72   933.87
                              968.21  1028.27  1091.52  1124.80  1205.88
                             1208.10  1256.71  1284.36  1344.44  1356.27
                             1374.07  1413.20  1422.57  1456.96  1490.81
                             1504.65  1517.60  1546.25  1572.23  1607.39
                             1644.62  1655.32  1723.65  1747.87  1759.77
                             1764.48  1788.28  1810.30  1818.23  1859.40
                             1868.46  1911.10  1913.05  1954.65  1981.96
                             1989.33  2016.48  2073.41  2091.01  2132.91
                             2136.13  2142.33  2167.25  2183.58  2196.25
                             2313.48  2348.59  2385.47  2419.68  2455.84
                             2474.19  4156.53  4275.35  4314.71  4319.89
                             4444.64  4466.84  4475.19  4487.54  4526.50
                             4537.21  4553.44  4619.40  4635.46  4669.04
                             4690.90  4697.81  4982.16  5145.82  5673.95
                             5681.15  5684.93

 Zero-point correction=                           0.318305 (Hartree/Particle)
 Thermal correction to Energy=                    0.322884
 Thermal correction to Enthalpy=                  0.323296
 Thermal correction to Gibbs Free Energy=         0.303055
 Sum of electronic and zero-point Energies=           -728.280190
 Sum of electronic and thermal Energies=              -728.275611
 Sum of electronic and thermal Enthalpies=            -728.275200
 Sum of electronic and thermal Free Energies=         -728.295440

                     E (Thermal)             CV                S
                      KCal/Mol        Cal/Mol-Kelvin    Cal/Mol-Kelvin
 Total                  202.613             37.259             97.700
 Electronic               0.000              0.000              0.000
 Translational            0.388              2.981             37.906
 Rotational               0.388              2.981             30.159
 Vibrational            201.838             31.297             29.635
 Vibration     1          0.260              1.971              4.311
 Vibration     2          0.261              1.964              3.958
 Vibration     3          0.266              1.927              3.000
 Vibration     4          0.268              1.911              2.773
 Vibration     5          0.273              1.874              2.385
 Vibration     6          0.276              1.857              2.250
 Vibration     7          0.285              1.789              1.850
 Vibration     8          0.294              1.727              1.593
 Vibration     9          0.319              1.560              1.134
 Vibration    10          0.333              1.475              0.971
 Vibration    11          0.359              1.324              0.748
 Vibration    12          0.382              1.202              0.607
 Vibration    13          0.393              1.149              0.553
 Vibration    14          0.401              1.107              0.514
 Vibration    15          0.406              1.087              0.496
 Vibration    16          0.416              1.041              0.457
 Vibration    17          0.423              1.008              0.431

 Optimization completed.
    -- Stationary point found.
 Normal termination of Gaussian 16 at Thu Aug 27 11:18:17 2020.
