 Gaussian 16, Revision A.03,
 Gaussian 16:  ES64L-G16RevA.03 25-Dec-2016

 -------------------------------------------------------------------
 # wB97XD/aug-cc-pVDZ Opt=(TS,CalcAll,MaxStep=1,MaxCycles=1000) freq
 -------------------------------------------------------------------

 ----
 blah
 ----
 Symbolic Z-matrix:
 Charge =  1 Multiplicity = 1

 SCF Done:  E(RwB97XD) =  -728.578131694     A.U. after   16 cycles
 SCF Done:  E(RwB97XD) =  -728.578135488     A.U. after   10 cycles
 SCF Done:  E(RwB97XD) =  -728.578138408     A.U. after   10 cycles
 SCF Done:  E(RwB97XD) =  -728.578140741     A.U. after   10 cycles
 SCF Done:  E(RwB97XD) =  -728.578142562     A.U. after   10 cycles
 SCF Done:  E(RwB97XD) =  -728.578143710     A.U. after   10 cycles
 SCF Done:  E(RwB97XD) =  -728.578143913     A.U. after   10 cycles
 Optimization completed.
    -- Stationary point found.
 ******    1 imaginary frequencies (negative Signs) ******
    1 imaginary frequencies ignored.
 Normal termination of Gaussian 16 at Sat Nov  5 23:32:11 2022.

 ----------------------------------------------------------------------
 #N Geom=AllCheck Guess=TCheck SCRF=Check GenChk RwB97XD/Aug-CC-pVDZ Fr
 eq
 ----------------------------------------------------------------------

 Structure from the checkpoint file:  "/gscratch/scrubbed/gds001/Gau-3146.chk"
 ----
 blah
 ----
 Charge =  1 Multiplicity = 1

                         Standard orientation:
 ---------------------------------------------------------------------
 Center     Atomic      Atomic             Coordinates (Angstroms)
 Number     Number       Type             X           Y           Z
 ---------------------------------------------------------------------
      1          7           0        2.333151   -0.668770   -0.375159
      2          6           0        2.733619   -1.869477    0.059187
      3          6           0        1.833984   -2.868322    0.413905
      4          6           0        0.470245   -2.598624    0.332869
      5          6           0        0.038613   -1.351738   -0.119784
      6          6           0        1.023137   -0.430440   -0.473008
      7          6           0       -1.425822   -1.002074   -0.213043
      8          6           0       -1.937786   -0.599958   -1.605459
      9          6           0       -3.147049    0.324072   -1.323207
     10          6           0       -3.181886    0.461283    0.205436
     11          7           0       -1.798807    0.161609    0.630017
     12          6           0       -1.683639   -0.096029    2.066663
     13          1           0        3.809605   -2.029161    0.125735
     14          1           0        2.197850   -3.834360    0.758106
     15          1           0       -0.256697   -3.358387    0.622602
     16          1           0        0.748378    0.555307   -0.850625
     17          1           0       -2.005522   -1.871806    0.144480
     18          1           0       -2.202437   -1.485550   -2.191522
     19          1           0       -1.155637   -0.066983   -2.158557
     20          1           0       -4.086045   -0.093093   -1.699619
     21          1           0       -3.011317    1.299172   -1.804869
     22          1           0       -3.870651   -0.273113    0.653890
     23          1           0       -3.475970    1.456369    0.560847
     24          1           0       -2.305251   -0.954028    2.369073
     25          1           0       -2.010667    0.790671    2.621299
     26          1           0       -0.638519   -0.304409    2.322919
     27          8           0        3.448342    1.724129   -0.526616
     28          8           0       -0.589753    2.374587    0.201762
     29          8           0        1.682039    3.157198    0.420720
     30          1           0        3.918214    1.951510   -1.333052
     31          1           0       -1.199726    2.995078   -0.203807
     32          1           0        1.916427    3.405420    1.320977
     33          1           0        3.185952    0.752415   -0.556279
     34          1           0        2.440744    2.562843   -0.009308
     35          1           0        0.650056    2.776908    0.341108
     36          1           0       -1.054715    1.415864    0.354312
 ---------------------------------------------------------------------

 SCF Done:  E(RwB97XD) =  -728.578143913     A.U. after    1 cycles

 The electronic state is 1-A.
 Alpha  occ. eigenvalues --  -19.46060 -19.41455 -19.41066 -14.60597 -14.59416
 Alpha  occ. eigenvalues --  -10.46851 -10.46675 -10.46540 -10.44994 -10.44800
 Alpha  occ. eigenvalues --  -10.44688 -10.44515 -10.43591 -10.42007 -10.41751
 Alpha  occ. eigenvalues --   -1.31782  -1.25669  -1.24977  -1.19314  -1.18471
 Alpha  occ. eigenvalues --   -1.05092  -1.01915  -1.00652  -0.95081  -0.90629
 Alpha  occ. eigenvalues --   -0.86765  -0.85595  -0.82425  -0.81390  -0.81030
 Alpha  occ. eigenvalues --   -0.80593  -0.77965  -0.76196  -0.73771  -0.72145
 Alpha  occ. eigenvalues --   -0.71160  -0.70125  -0.67029  -0.66457  -0.65938
 Alpha  occ. eigenvalues --   -0.65038  -0.63307  -0.62457  -0.62364  -0.60744
 Alpha  occ. eigenvalues --   -0.60515  -0.60092  -0.59665  -0.58023  -0.56810
 Alpha  occ. eigenvalues --   -0.56128  -0.55331  -0.55173  -0.55035  -0.53135
 Alpha  occ. eigenvalues --   -0.49866  -0.49197  -0.47442  -0.46559
 Alpha virt. eigenvalues --   -0.09788  -0.08486  -0.07398  -0.05424  -0.05193
 Alpha virt. eigenvalues --   -0.04926  -0.03643  -0.03383  -0.02847  -0.02779
 Alpha virt. eigenvalues --   -0.02205  -0.01537  -0.01103  -0.00791  -0.00537

 Mulliken charges:
               1
     1  N   -0.596713
     2  C    0.273791
     3  C    0.516248
     4  C    1.220531
     5  C    0.715013
     6  C    0.948866
     7  C    1.317601
     8  C    1.048531
     9  C    0.804298
    10  C    1.297814
    11  N   -1.683644
    12  C    1.014885
    13  H   -0.597228
    14  H   -0.589055
    15  H   -0.902653
    16  H   -1.282164
    17  H   -0.811692
    18  H   -0.524871
    19  H   -0.302896
    20  H   -0.256786
    21  H   -0.301940
    22  H   -0.526232
    23  H   -0.594221
    24  H   -0.166726
    25  H   -0.218581
    26  H   -0.118498
    27  O   -0.488270
    28  O   -0.640765
    29  O   -0.412510
    30  H    0.144301
    31  H    0.154957
    32  H    0.227113
    33  H    0.393834
    34  H    0.475035
    35  H    0.609695
    36  H    0.852932
 Sum of Mulliken charges =   1.00000

 Dipole moment (field-independent basis, Debye):
    X=              0.3191    Y=              2.2010    Z=              0.8639  Tot=              2.3859
 Quadrupole moment (field-independent basis, Debye-Ang):
   XX=            -56.0996   YY=            -58.6978   ZZ=            -81.8167
   XY=              2.3169   XZ=             -1.3673   YZ=             -0.6054

  Exact polarizability: 179.204  -7.266 157.927   1.040  -8.097 122.391
 Approx polarizability: 183.971  -1.436 176.438  -0.222 -12.440 140.756

 ******    1 imaginary frequencies (negative Signs) ******

                      1                      2                      3
                      A                      A                      A
 Frequencies --   -306.1394                37.5103                40.5286
 Red. masses --      2.4215                 4.0100                 4.7567
 Frc consts  --      0.1337                 0.0033                 0.0046
 IR Inten    --    974.9152                 0.1863                 7.4772

                      4                      5                      6
                      A                      A                      A
 Frequencies --     61.5592                77.3288                79.5634
 Red. masses --      3.6724                 4.2457                 2.7336
 Frc consts  --      0.0082                 0.0150                 0.0102
 IR Inten    --      2.1341                 2.4098                 4.7236

                      7                      8                      9
                      A                      A                      A
 Frequencies --     95.6401               112.1121               122.6067
 Red. masses --      4.6068                 4.3436                 3.6148
 Frc consts  --      0.0248                 0.0322                 0.0320
 IR Inten    --      2.3176                 6.0715                16.6760

                     10                     11                     12
                      A                      A                      A
 Frequencies --    161.8418               182.0557               209.3447
 Red. masses --      1.2510                 1.9229                 3.3391
 Frc consts  --      0.0193                 0.0376                 0.0862
 IR Inten    --     51.3268                10.4330                26.9104

                     13                     14                     15
                      A                      A                      A
 Frequencies --    225.7586               247.6800               265.2042
 Red. masses --      4.2729                 1.1760                 2.6444
 Frc consts  --      0.1283                 0.0425                 0.1096
 IR Inten    --     25.6836                 5.5951                 3.7039

                     16                     17                     18
                      A                      A                      A
 Frequencies --    289.7137               316.4658               331.8033
 Red. masses --      1.3700                 2.4330                 2.8984
 Frc consts  --      0.0677                 0.1436                 0.1880
 IR Inten    --     22.5993               111.2185               173.3383

                     19                     20                     21
                      A                      A                      A
 Frequencies --    397.5396               403.2728               413.9902
 Red. masses --      1.6151                 2.9542                 2.5260
 Frc consts  --      0.1504                 0.2831                 0.2551
 IR Inten    --    133.3018                 0.8593               116.9987

                     22                     23                     24
                      A                      A                      A
 Frequencies --    424.9694               518.8664               543.0241
 Red. masses --      2.4755                 3.2928                 3.6368
 Frc consts  --      0.2634                 0.5223                 0.6318
 IR Inten    --     54.1211                63.5024                18.4515

                     25                     26                     27
                      A                      A                      A
 Frequencies --    576.6301               610.4088               640.2993
 Red. masses --      2.8973                 1.1965                 3.0180
 Frc consts  --      0.5676                 0.2627                 0.7290
 IR Inten    --      6.8688                21.2258                 0.3506

                     28                     29                     30
                      A                      A                      A
 Frequencies --    657.5980               661.4661               681.2038
 Red. masses --      2.3917                 1.4365                 5.4057
 Frc consts  --      0.6094                 0.3703                 1.4779
 IR Inten    --      2.6748                 8.8524                 0.8531

                     31                     32                     33
                      A                      A                      A
 Frequencies --    737.9196               766.1659               783.9410
 Red. masses --      1.9364                 1.2993                 1.2737
 Frc consts  --      0.6212                 0.4494                 0.4612
 IR Inten    --     31.0668                53.1166                45.1453

                     34                     35                     36
                      A                      A                      A
 Frequencies --    834.0608               840.5258               919.7854
 Red. masses --      1.8932                 1.9148                 3.1706
 Frc consts  --      0.7759                 0.7970                 1.5804
 IR Inten    --     53.8150                18.4187               255.2874

                     37                     38                     39
                      A                      A                      A
 Frequencies --    931.8222               945.6614               975.0236
 Red. masses --      1.6995                 2.4479                 1.3543
 Frc consts  --      0.8694                 1.2898                 0.7586
 IR Inten    --     24.1315                37.7921                 3.2763

                     40                     41                     42
                      A                      A                      A
 Frequencies --    987.5191               998.2295              1007.5829
 Red. masses --      1.4733                 1.1459                 1.8521
 Frc consts  --      0.8465                 0.6727                 1.1078
 IR Inten    --      1.3805                30.0358                17.3670

                     43                     44                     45
                      A                      A                      A
 Frequencies --   1028.2061              1052.2182              1054.9130
 Red. masses --      1.4137                 2.3160                 3.9753
 Frc consts  --      0.8806                 1.5108                 2.6065
 IR Inten    --      0.0225               101.2923                 7.0531

                     46                     47                     48
                      A                      A                      A
 Frequencies --   1066.8002              1094.7220              1105.8472
 Red. masses --      2.0563                 1.7082                 1.7030
 Frc consts  --      1.3788                 1.2061                 1.2270
 IR Inten    --     46.3519               416.8081               821.1275

                     49                     50                     51
                      A                      A                      A
 Frequencies --   1120.0694              1146.2412              1153.6498
 Red. masses --      1.7488                 1.4638                 1.3777
 Frc consts  --      1.2927                 1.1332                 1.0803
 IR Inten    --    311.0594               436.1787               123.1589

                     52                     53                     54
                      A                      A                      A
 Frequencies --   1173.3879              1217.1316              1229.3441
 Red. masses --      1.9992                 1.4034                 1.3442
 Frc consts  --      1.6218                 1.2249                 1.1969
 IR Inten    --     42.9994                23.5180                48.6858

                     55                     56                     57
                      A                      A                      A
 Frequencies --   1237.3050              1246.7219              1256.2270
 Red. masses --      1.9444                 1.3838                 1.0728
 Frc consts  --      1.7539                 1.2672                 0.9975
 IR Inten    --      7.2882                41.9625               121.8681

                     58                     59                     60
                      A                      A                      A
 Frequencies --   1264.3287              1284.3001              1293.4487
 Red. masses --      1.5370                 1.3508                 1.5282
 Frc consts  --      1.4476                 1.3127                 1.5064
 IR Inten    --     10.1137                15.4981                10.0383

                     61                     62                     63
                      A                      A                      A
 Frequencies --   1306.0458              1318.7134              1331.5736
 Red. masses --      1.3759                 3.9528                 1.3937
 Frc consts  --      1.3828                 4.0500                 1.4559
 IR Inten    --     66.9202                 2.3322                11.6603

                     64                     65                     66
                      A                      A                      A
 Frequencies --   1369.3542              1372.4666              1384.0268
 Red. masses --      1.3489                 1.3954                 1.4680
 Frc consts  --      1.4903                 1.5487                 1.6568
 IR Inten    --     14.3800                16.4338                 5.8249

                     67                     68                     69
                      A                      A                      A
 Frequencies --   1386.8012              1416.8556              1450.7003
 Red. masses --      1.1223                 1.5584                 1.2052
 Frc consts  --      1.2717                 1.8432                 1.4943
 IR Inten    --    327.5316                10.8209                19.7126

                     70                     71                     72
                      A                      A                      A
 Frequencies --   1483.4850              1486.0403              1488.2767
 Red. masses --      1.8196                 1.1200                 1.0873
 Frc consts  --      2.3593                 1.4572                 1.4190
 IR Inten    --     31.7570                20.3408                 5.4160

                     73                     74                     75
                      A                      A                      A
 Frequencies --   1491.5936              1509.0166              1522.7347
 Red. masses --      1.0844                 1.0957                 1.1691
 Frc consts  --      1.4214                 1.4701                 1.5972
 IR Inten    --      3.8374                14.8490                35.5199

                     76                     77                     78
                      A                      A                      A
 Frequencies --   1535.1379              1590.8036              1639.3811
 Red. masses --      2.1352                 1.0650                 1.1057
 Frc consts  --      2.9647                 1.5880                 1.7508
 IR Inten    --      5.4626                79.7884                40.6027

                     79                     80                     81
                      A                      A                      A
 Frequencies --   1665.8511              1689.9764              1724.8638
 Red. masses --      5.0754                 5.7084                 1.0704
 Frc consts  --      8.2983                 9.6057                 1.8763
 IR Inten    --     27.7393                11.4423                78.0663

                     82                     83                     84
                      A                      A                      A
 Frequencies --   1762.8629              1964.7885              2260.7720
 Red. masses --      1.1104                 1.1192                 1.0780
 Frc consts  --      2.0331                 2.5456                 3.2464
 IR Inten    --   1311.9511              1063.0594              2084.6839

                     85                     86                     87
                      A                      A                      A
 Frequencies --   2994.5633              3008.7304              3029.7290
 Red. masses --      1.0727                 1.0844                 1.0434
 Frc consts  --      5.6677                 5.7839                 5.6428
 IR Inten    --   2180.2538                 1.9828                12.3422

                     88                     89                     90
                      A                      A                      A
 Frequencies --   3036.7721              3092.1436              3103.3113
 Red. masses --      1.0674                 1.0648                 1.0671
 Frc consts  --      5.7997                 5.9984                 6.0548
 IR Inten    --     25.0782                12.9555                17.9817

                     91                     92                     93
                      A                      A                      A
 Frequencies --   3123.6633              3125.0972              3148.9583
 Red. masses --      1.0960                 1.0946                 1.1036
 Frc consts  --      6.3006                 6.2985                 6.4478
 IR Inten    --     17.7971                18.4181                 0.4834

                     94                     95                     96
                      A                      A                      A
 Frequencies --   3159.7414              3165.0760              3201.1224
 Red. masses --      1.1051                 1.1045                 1.0919
 Frc consts  --      6.5006                 6.5189                 6.5920
 IR Inten    --     10.4920                18.7022                 1.2319

                     97                     98                     99
                      A                      A                      A
 Frequencies --   3201.6600              3215.6507              3239.3126
 Red. masses --      1.0910                 1.0924                 1.0987
 Frc consts  --      6.5890                 6.6553                 6.7924
 IR Inten    --      5.2804                 3.5184                 1.1354

                    100                    101                    102
                      A                      A                      A
 Frequencies --   3898.1913              3930.9009              3934.7803
 Red. masses --      1.0659                 1.0665                 1.0662
 Frc consts  --      9.5430                 9.7098                 9.7261
 IR Inten    --    147.8525               137.0488                97.8521

 - Thermochemistry -
 -------------------
 Temperature   298.150 Kelvin.  Pressure   1.00000 Atm.
 Atom     1 has atomic number  7 and mass  14.00307

 Molecular mass:   217.15522 amu.
 Principal axes and moments of inertia in atomic units:
                           1         2         3
     Eigenvalues --  2926.811344105.355165844.18845
           X            0.99989   0.01464  -0.00050
           Y           -0.01464   0.99988  -0.00552
           Z            0.00042   0.00552   0.99998
 This molecule is an asymmetric top.
 Rotational symmetry number  1.
 Warning -- assumption of classical behavior for rotation
           may cause significant error
 Rotational temperatures (Kelvin)      0.02959     0.02110     0.01482
 Rotational constants (GHZ):           0.61662     0.43961     0.30881
    1 imaginary frequencies ignored.
 Zero-point vibrational energy     818847.5 (Joules/Mol)
                                  195.70925 (Kcal/Mol)
 Warning -- explicit consideration of  25 degrees of freedom as
           vibrations may cause significant error
 Vibrational temperatures:     53.97    58.31    88.57   111.26   114.47
          (Kelvin)            137.60   161.30   176.40   232.85   261.94
                              301.20   324.82   356.36   381.57   416.83
                              455.32   477.39   571.97   580.22   595.64
                              611.44   746.53   781.29   829.64   878.24
                              921.25   946.14   951.70   980.10  1061.70
                             1102.34  1127.92  1200.03  1209.33  1323.37
                             1340.68  1360.60  1402.84  1420.82  1436.23
                             1449.69  1479.36  1513.91  1517.78  1534.89
                             1575.06  1591.07  1611.53  1649.19  1659.84
                             1688.24  1751.18  1768.75  1780.21  1793.75
                             1807.43  1819.09  1847.82  1860.98  1879.11
                             1897.33  1915.84  1970.20  1974.67  1991.31
                             1995.30  2038.54  2087.23  2134.40  2138.08
                             2141.30  2146.07  2171.14  2190.88  2208.72
                             2288.81  2358.70  2396.79  2431.50  2481.69
                             2536.37  2826.89  3252.75  4308.51  4328.89
                             4359.10  4369.24  4448.90  4464.97  4494.25
                             4496.32  4530.65  4546.16  4553.84  4605.70
                             4606.47  4626.60  4660.65  5608.63  5655.69
                             5661.27

 Zero-point correction=                           0.311883 (Hartree/Particle)
 Thermal correction to Energy=                    0.329035
 Thermal correction to Enthalpy=                  0.329979
 Thermal correction to Gibbs Free Energy=         0.266375
 Sum of electronic and zero-point Energies=           -728.266261
 Sum of electronic and thermal Energies=              -728.249109
 Sum of electronic and thermal Enthalpies=            -728.248165
 Sum of electronic and thermal Free Energies=         -728.311769

                     E (Thermal)             CV                S
                      KCal/Mol        Cal/Mol-Kelvin    Cal/Mol-Kelvin
 Total                  206.473             63.656            133.867
 Electronic               0.000              0.000              0.000
 Translational            0.889              2.981             42.029
 Rotational               0.889              2.981             32.618
 Vibrational            204.695             57.695             59.220
 Vibration     1          0.594              1.982              5.386
 Vibration     2          0.594              1.981              5.233
 Vibration     3          0.597              1.973              4.407
 Vibration     4          0.599              1.964              3.958
 Vibration     5          0.600              1.963              3.902
 Vibration     6          0.603              1.952              3.541
 Vibration     7          0.607              1.939              3.232
 Vibration     8          0.610              1.930              3.059
 Vibration     9          0.622              1.889              2.528
 Vibration    10          0.630              1.864              2.307
 Vibration    11          0.642              1.826              2.049
 Vibration    12          0.650              1.802              1.912
 Vibration    13          0.661              1.767              1.747
 Vibration    14          0.671              1.737              1.627
 Vibration    15          0.686              1.693              1.476
 Vibration    16          0.703              1.642              1.328
 Vibration    17          0.714              1.612              1.251
 Vibration    18          0.764              1.475              0.972
 Vibration    19          0.769              1.463              0.951
 Vibration    20          0.778              1.440              0.913
 Vibration    21          0.787              1.416              0.875
 Vibration    22          0.874              1.208              0.613
 Vibration    23          0.898              1.155              0.559
 Vibration    24          0.933              1.082              0.492
 Vibration    25          0.969              1.010              0.432

 Optimization completed.
    -- Stationary point found.
 Normal termination of Gaussian 16 at Sun Nov  6 00:25:08 2022.
