 Gaussian 16, Revision A.03,
 Gaussian 16:  ES64L-G16RevA.03 25-Dec-2016

 ------------------------------------------------
 # wB97XD/aug-cc-pVDZ Opt=(CalcFC,ReCalc=50) Freq
 ------------------------------------------------

 ---------------------------
 p-Pyr Nicotine, N syn, 3H2O
 ---------------------------
 Symbolic Z-matrix:
 Charge =  1 Multiplicity = 1

 SCF Done:  E(RwB97XD) =  -728.595577996     A.U. after   14 cycles
 SCF Done:  E(RwB97XD) =  -728.597798355     A.U. after   12 cycles
 SCF Done:  E(RwB97XD) =  -728.597902393     A.U. after   12 cycles
 SCF Done:  E(RwB97XD) =  -728.597911154     A.U. after   11 cycles
 SCF Done:  E(RwB97XD) =  -728.597912760     A.U. after   10 cycles
 SCF Done:  E(RwB97XD) =  -728.597912957     A.U. after    8 cycles
 SCF Done:  E(RwB97XD) =  -728.597912966     A.U. after    8 cycles
 Optimization completed.
    -- Stationary point found.
 Normal termination of Gaussian 16 at Tue Jul 21 16:37:35 2020.

 ----------------------------------------------------------------------
 #N Geom=AllCheck Guess=TCheck SCRF=Check GenChk RwB97XD/Aug-CC-pVDZ Fr
 eq
 ----------------------------------------------------------------------

 Structure from the checkpoint file:  "NicPyrNs3h7.chk"
 ---------------------------
 p-Pyr Nicotine, N syn, 3H2O
 ---------------------------
 Charge =  1 Multiplicity = 1

                         Standard orientation:
 ---------------------------------------------------------------------
 Center     Atomic      Atomic             Coordinates (Angstroms)
 Number     Number       Type             X           Y           Z
 ---------------------------------------------------------------------
      1          6           0        1.128595    0.582101   -0.595674
      2          6           0       -0.207913    0.955077   -0.441990
      3          6           0       -0.467523    2.182780    0.169257
      4          6           0        0.598940    2.963637    0.602480
      5          6           0        1.894480    2.488813    0.413625
      6          7           0        2.157195    1.319133   -0.176527
      7          6           0       -1.282459    0.000853   -0.916467
      8          6           0       -2.663812    0.613154   -1.194788
      9          6           0       -3.466741    0.468832    0.122210
     10          6           0       -2.557465   -0.325668    1.070225
     11          7           0       -1.573489   -1.012075    0.175812
     12          8           0        0.572682   -1.956141    1.469718
     13          1           0       -3.071970   -1.072686    1.680739
     14          1           0       -4.411028   -0.057083   -0.051370
     15          1           0       -3.719033    1.438267    0.563799
     16          1           0       -2.569855    1.650968   -1.526613
     17          1           0       -3.153119    0.068002   -2.008553
     18          1           0       -1.981387    0.329330    1.731892
     19          1           0       -0.898222   -0.561178   -1.774076
     20          1           0        1.384197   -0.365399   -1.076382
     21          1           0        2.755450    3.069579    0.745439
     22          1           0        0.433359    3.928157    1.078222
     23          1           0       -1.487142    2.543284    0.306417
     24          6           0       -2.082753   -2.299499   -0.361284
     25          1           0       -0.699266   -1.245769    0.713715
     26          1           0        1.322681   -2.216080    0.878640
     27          1           0        0.945796   -1.781952    2.336270
     28          1           0        3.691704    0.269250   -0.287001
     29          8           0        4.219674   -0.556249   -0.303960
     30          1           0        4.968099   -0.400941   -0.884245
     31          8           0        2.416146   -2.534412   -0.339833
     32          1           0        3.169422   -1.898501   -0.368961
     33          1           0        2.799438   -3.411892   -0.409058
     34          1           0       -1.323061   -2.725330   -1.023066
     35          1           0       -3.014513   -2.136371   -0.911503
     36          1           0       -2.255596   -2.979122    0.477736
 ---------------------------------------------------------------------

 SCF Done:  E(RwB97XD) =  -728.597912966     A.U. after    1 cycles

 The electronic state is 1-A.
 Alpha  occ. eigenvalues --  -19.39576 -19.38280 -19.37163 -14.68879 -14.58705
 Alpha  occ. eigenvalues --  -10.50044 -10.48733 -10.48286 -10.46835 -10.46556
 Alpha  occ. eigenvalues --  -10.45555 -10.45443 -10.44534 -10.44509 -10.43840
 Alpha  occ. eigenvalues --   -1.25658  -1.24021  -1.22496  -1.21025  -1.18484
 Alpha  occ. eigenvalues --   -1.06916  -1.03866  -1.01758  -0.98006  -0.95737
 Alpha  occ. eigenvalues --   -0.87686  -0.86526  -0.84722  -0.83188  -0.79609
 Alpha  occ. eigenvalues --   -0.75766  -0.75277  -0.74785  -0.73719  -0.72125
 Alpha  occ. eigenvalues --   -0.71529  -0.70910  -0.68782  -0.66756  -0.65980
 Alpha  occ. eigenvalues --   -0.64650  -0.64146  -0.63325  -0.62608  -0.61818
 Alpha  occ. eigenvalues --   -0.61278  -0.60817  -0.58978  -0.58806  -0.58543
 Alpha  occ. eigenvalues --   -0.57471  -0.56653  -0.55649  -0.53307  -0.52019
 Alpha  occ. eigenvalues --   -0.50584  -0.50257  -0.48057  -0.47082
 Alpha virt. eigenvalues --   -0.10172  -0.08853  -0.06909  -0.05632  -0.05252
 Alpha virt. eigenvalues --   -0.04860  -0.03730  -0.03386  -0.03213  -0.03084
 Alpha virt. eigenvalues --   -0.02685  -0.01698  -0.01222  -0.01081  -0.00794

 Mulliken charges:
               1
     1  C    0.949093
     2  C    1.050639
     3  C    1.390716
     4  C    0.540350
     5  C    0.120893
     6  N   -0.567555
     7  C    1.007625
     8  C    0.953593
     9  C    0.743552
    10  C    1.420743
    11  N   -0.664978
    12  O   -0.591456
    13  H   -0.395612
    14  H   -0.329519
    15  H   -0.276627
    16  H   -0.484346
    17  H   -0.352044
    18  H   -0.571548
    19  H   -0.711571
    20  H   -1.096597
    21  H   -0.571020
    22  H   -0.630099
    23  H   -1.044635
    24  C    0.936816
    25  H   -0.007037
    26  H    0.306348
    27  H    0.206775
    28  H    0.238836
    29  O   -0.368263
    30  H    0.156068
    31  O   -0.420254
    32  H    0.259203
    33  H    0.157617
    34  H   -0.146739
    35  H    0.002463
    36  H   -0.211429
 Sum of Mulliken charges =   1.00000

 Dipole moment (field-independent basis, Debye):
    X=             -3.6919    Y=             -0.9885    Z=              0.2476  Tot=              3.8300
 Quadrupole moment (field-independent basis, Debye-Ang):
   XX=            -51.1898   YY=            -63.7653   ZZ=            -81.9633
   XY=              1.4614   XZ=             -2.6287   YZ=              3.9520

  Exact polarizability: 173.231   5.509 157.084   1.137  11.276 118.044
 Approx polarizability: 178.438   1.314 170.565   0.169  16.503 142.826

                      1                      2                      3
                      A                      A                      A
 Frequencies --     33.1606                42.1348                57.2735
 Red. masses --      4.5971                 4.9009                 3.6613
 Frc consts  --      0.0030                 0.0051                 0.0071
 IR Inten    --      0.1221                 3.8247                 1.7045

                      4                      5                      6
                      A                      A                      A
 Frequencies --     60.1663                74.8322                94.3513
 Red. masses --      4.7235                 5.3385                 4.8753
 Frc consts  --      0.0101                 0.0176                 0.0256
 IR Inten    --      1.0019                 1.0957                 5.0131

                      7                      8                      9
                      A                      A                      A
 Frequencies --    106.2427               121.8427               157.4881
 Red. masses --      2.8648                 3.3440                 2.2116
 Frc consts  --      0.0191                 0.0292                 0.0323
 IR Inten    --      1.2306                 0.7976                 0.5366

                     10                     11                     12
                      A                      A                      A
 Frequencies --    184.2840               207.4347               212.4273
 Red. masses --      5.3026                 1.9992                 1.6369
 Frc consts  --      0.1061                 0.0507                 0.0435
 IR Inten    --      6.4750                75.5069                39.4358

                     13                     14                     15
                      A                      A                      A
 Frequencies --    218.9001               234.3656               254.9907
 Red. masses --      1.2193                 1.1928                 2.4364
 Frc consts  --      0.0344                 0.0386                 0.0933
 IR Inten    --      3.8959                88.9902                 9.4655

                     16                     17                     18
                      A                      A                      A
 Frequencies --    270.4239               272.8510               311.9942
 Red. masses --      3.5427                 4.8432                 1.1247
 Frc consts  --      0.1526                 0.2124                 0.0645
 IR Inten    --      5.0759                28.0535               117.2535

                     19                     20                     21
                      A                      A                      A
 Frequencies --    328.5501               341.4564               370.1008
 Red. masses --      4.8757                 2.9914                 3.5649
 Frc consts  --      0.3101                 0.2055                 0.2877
 IR Inten    --     11.9039                 0.9217                 3.8487

                     22                     23                     24
                      A                      A                      A
 Frequencies --    412.9749               423.0244               459.1485
 Red. masses --      2.6336                 2.3044                 1.1428
 Frc consts  --      0.2646                 0.2430                 0.1419
 IR Inten    --     12.3240                 3.9705                69.5700

                     25                     26                     27
                      A                      A                      A
 Frequencies --    538.2516               557.4222               568.9255
 Red. masses --      2.0686                 1.4200                 1.0788
 Frc consts  --      0.3531                 0.2600                 0.2057
 IR Inten    --     13.6608                30.3620                58.8158

                     28                     29                     30
                      A                      A                      A
 Frequencies --    624.6512               651.8254               691.4767
 Red. masses --      4.0980                 6.0511                 2.5439
 Frc consts  --      0.9421                 1.5148                 0.7166
 IR Inten    --      0.9757                 9.1993                 4.3591

                     31                     32                     33
                      A                      A                      A
 Frequencies --    738.9071               750.9852               781.7316
 Red. masses --      1.9796                 3.0598                 1.1784
 Frc consts  --      0.6368                 1.0167                 0.4243
 IR Inten    --     37.6588                 9.1037                56.0609

                     34                     35                     36
                      A                      A                      A
 Frequencies --    788.7908               802.1957               814.3794
 Red. masses --      1.5943                 1.1662                 1.9553
 Frc consts  --      0.5845                 0.4422                 0.7640
 IR Inten    --     34.0556               108.2742                21.8212

                     37                     38                     39
                      A                      A                      A
 Frequencies --    836.2178               885.2761               911.2436
 Red. masses --      1.8084                 2.4630                 2.1873
 Frc consts  --      0.7450                 1.1373                 1.0701
 IR Inten    --     16.3108                 0.9655                 5.6261

                     40                     41                     42
                      A                      A                      A
 Frequencies --    926.0333               942.9995               964.3258
 Red. masses --      2.4986                 1.0860                 2.2826
 Frc consts  --      1.2624                 0.5690                 1.2506
 IR Inten    --     12.5959                88.1959                11.0280

                     43                     44                     45
                      A                      A                      A
 Frequencies --    981.8055              1003.0203              1031.0663
 Red. masses --      1.3362                 1.4490                 1.4390
 Frc consts  --      0.7589                 0.8589                 0.9013
 IR Inten    --      1.4893                 1.8474                 0.2792

                     46                     47                     48
                      A                      A                      A
 Frequencies --   1034.6659              1051.7302              1054.5949
 Red. masses --      2.3292                 3.2381                 2.6267
 Frc consts  --      1.4692                 2.1104                 1.7212
 IR Inten    --     15.3545                12.0144                11.0212

                     49                     50                     51
                      A                      A                      A
 Frequencies --   1078.3562              1090.7770              1110.7322
 Red. masses --      2.3617                 2.2095                 1.7783
 Frc consts  --      1.6181                 1.5489                 1.2926
 IR Inten    --      5.0406                 4.9622                 0.9271

                     52                     53                     54
                      A                      A                      A
 Frequencies --   1153.2239              1162.2087              1191.2368
 Red. masses --      1.2978                 1.3671                 1.7970
 Frc consts  --      1.0169                 1.0880                 1.5024
 IR Inten    --      3.7649                11.7143                 2.3435

                     55                     56                     57
                      A                      A                      A
 Frequencies --   1217.3264              1227.8682              1256.3810
 Red. masses --      1.6771                 1.5320                 1.2438
 Frc consts  --      1.4643                 1.3609                 1.1568
 IR Inten    --      1.9391                 4.2140                 2.7096

                     58                     59                     60
                      A                      A                      A
 Frequencies --   1266.3308              1282.8037              1296.6812
 Red. masses --      1.2420                 1.2902                 1.7339
 Frc consts  --      1.1734                 1.2509                 1.7177
 IR Inten    --      6.2027                 0.0856                 1.1938

                     61                     62                     63
                      A                      A                      A
 Frequencies --   1320.5368              1336.9311              1350.8837
 Red. masses --      4.0576                 1.4433                 1.3705
 Frc consts  --      4.1689                 1.5199                 1.4736
 IR Inten    --      8.5454                 0.1491                 1.9320

                     64                     65                     66
                      A                      A                      A
 Frequencies --   1368.5217              1380.5988              1400.1889
 Red. masses --      1.4445                 1.3332                 1.3162
 Frc consts  --      1.5940                 1.4972                 1.5203
 IR Inten    --     13.9728                 1.1370                 4.1046

                     67                     68                     69
                      A                      A                      A
 Frequencies --   1455.9553              1475.0781              1481.1885
 Red. masses --      1.1837                 1.5241                 1.2981
 Frc consts  --      1.4784                 1.9539                 1.6779
 IR Inten    --      9.2219                26.2583                 5.7692

                     70                     71                     72
                      A                      A                      A
 Frequencies --   1483.8485              1497.8602              1510.2464
 Red. masses --      1.0990                 1.0841                 1.1047
 Frc consts  --      1.4257                 1.4331                 1.4845
 IR Inten    --     13.7042                 3.5561                 9.3414

                     73                     74                     75
                      A                      A                      A
 Frequencies --   1522.1237              1529.3113              1534.5187
 Red. masses --      1.1432                 1.1684                 2.2889
 Frc consts  --      1.5605                 1.6101                 3.1755
 IR Inten    --     40.0821                35.3625                 6.5274

                     76                     77                     78
                      A                      A                      A
 Frequencies --   1577.7999              1642.5086              1652.4264
 Red. masses --      1.1388                 1.0998                 1.1394
 Frc consts  --      1.6704                 1.7481                 1.8331
 IR Inten    --     22.7087                38.1387                86.0070

                     79                     80                     81
                      A                      A                      A
 Frequencies --   1664.3072              1684.0380              1703.2072
 Red. masses --      4.1548                 5.6444                 1.0749
 Frc consts  --      6.7806                 9.4313                 1.8372
 IR Inten    --      6.4550                21.3743                36.7961

                     82                     83                     84
                      A                      A                      A
 Frequencies --   2956.6433              3087.4957              3109.9704
 Red. masses --      1.0906                 1.0328                 1.0626
 Frc consts  --      5.6172                 5.8006                 6.0554
 IR Inten    --   1194.6740                 4.7034                 6.1849

                     85                     86                     87
                      A                      A                      A
 Frequencies --   3115.0096              3118.1327              3129.7299
 Red. masses --      1.0644                 1.0662                 1.0850
 Frc consts  --      6.0853                 6.1078                 6.2615
 IR Inten    --     13.5156                 2.6825                 2.5478

                     88                     89                     90
                      A                      A                      A
 Frequencies --   3154.6416              3170.4242              3179.2549
 Red. masses --      1.1059                 1.1055                 1.0931
 Frc consts  --      6.4845                 6.5468                 6.5095
 IR Inten    --      0.5939                 6.4018                 4.2107

                     91                     92                     93
                      A                      A                      A
 Frequencies --   3183.8499              3193.2921              3195.9326
 Red. masses --      1.1083                 1.1078                 1.1073
 Frc consts  --      6.6194                 6.6556                 6.6635
 IR Inten    --      6.5311                 0.9349                 0.6663

                     94                     95                     96
                      A                      A                      A
 Frequencies --   3206.1276              3212.1381              3239.6322
 Red. masses --      1.0901                 1.0930                 1.0983
 Frc consts  --      6.6019                 6.6443                 6.7917
 IR Inten    --      3.5810                 4.4204                 1.4398

                     97                     98                     99
                      A                      A                      A
 Frequencies --   3323.6559              3430.9700              3532.4780
 Red. masses --      1.0659                 1.0640                 1.0622
 Frc consts  --      6.9375                 7.3795                 7.8090
 IR Inten    --    898.8781               736.1622               964.8879

                    100                    101                    102
                      A                      A                      A
 Frequencies --   3938.3294              3947.8309              3949.2664
 Red. masses --      1.0671                 1.0671                 1.0685
 Frc consts  --      9.7519                 9.7988                 9.8188
 IR Inten    --     96.9978                95.2840               137.4755

 - Thermochemistry -
 -------------------
 Temperature   298.150 Kelvin.  Pressure   1.00000 Atm.
 Atom     1 has atomic number  6 and mass  12.00000

 Molecular mass:   217.15522 amu.
 Principal axes and moments of inertia in atomic units:
                           1         2         3
     Eigenvalues --  2639.845394301.272766058.16287
           X            0.99997  -0.00832   0.00005
           Y            0.00832   0.99993   0.00865
           Z           -0.00012  -0.00865   0.99996
 This molecule is an asymmetric top.
 Rotational symmetry number  1.
 Warning -- assumption of classical behavior for rotation
           may cause significant error
 Rotational temperatures (Kelvin)      0.03281     0.02014     0.01430
 Rotational constants (GHZ):           0.68365     0.41958     0.29790
 Zero-point vibrational energy     840159.8 (Joules/Mol)
                                  200.80301 (Kcal/Mol)
 Warning -- explicit consideration of  27 degrees of freedom as
           vibrations may cause significant error
 Vibrational temperatures:     47.71    60.62    82.40    86.57   107.67
          (Kelvin)            135.75   152.86   175.30   226.59   265.14
                              298.45   305.64   314.95   337.20   366.87
                              389.08   392.57   448.89   472.71   491.28
                              532.49   594.18   608.64   660.61   774.42
                              802.01   818.56   898.73   937.83   994.88
                             1063.12  1080.50  1124.74  1134.89  1154.18
                             1171.71  1203.13  1273.71  1311.08  1332.36
                             1356.77  1387.45  1412.60  1443.12  1483.47
                             1488.65  1513.21  1517.33  1551.51  1569.38
                             1598.10  1659.23  1672.16  1713.92  1751.46
                             1766.63  1807.65  1821.97  1845.67  1865.64
                             1899.96  1923.55  1943.62  1969.00  1986.37
                             2014.56  2094.79  2122.31  2131.10  2134.93
                             2155.09  2172.91  2190.00  2200.34  2207.83
                             2270.10  2363.20  2377.47  2394.57  2422.96
                             2450.54  4253.95  4442.22  4474.55  4481.80
                             4486.30  4502.98  4538.83  4561.53  4574.24
                             4580.85  4594.44  4598.23  4612.90  4621.55
                             4661.11  4782.00  4936.40  5082.45  5666.38
                             5680.05  5682.11

 Zero-point correction=                           0.320000 (Hartree/Particle)
 Thermal correction to Energy=                    0.338525
 Thermal correction to Enthalpy=                  0.339470
 Thermal correction to Gibbs Free Energy=         0.273097
 Sum of electronic and zero-point Energies=           -728.277913
 Sum of electronic and thermal Energies=              -728.259388
 Sum of electronic and thermal Enthalpies=            -728.258443
 Sum of electronic and thermal Free Energies=         -728.324816

                     E (Thermal)             CV                S
                      KCal/Mol        Cal/Mol-Kelvin    Cal/Mol-Kelvin
 Total                  212.428             67.994            139.693
 Electronic               0.000              0.000              0.000
 Translational            0.889              2.981             42.029
 Rotational               0.889              2.981             32.598
 Vibrational            210.650             62.032             65.066
 Vibration     1          0.594              1.983              5.631
 Vibration     2          0.595              1.980              5.156
 Vibration     3          0.596              1.975              4.549
 Vibration     4          0.597              1.973              4.452
 Vibration     5          0.599              1.966              4.022
 Vibration     6          0.603              1.953              3.568
 Vibration     7          0.605              1.944              3.336
 Vibration     8          0.609              1.931              3.071
 Vibration     9          0.621              1.894              2.580
 Vibration    10          0.631              1.861              2.285
 Vibration    11          0.641              1.829              2.066
 Vibration    12          0.643              1.822              2.023
 Vibration    13          0.647              1.812              1.968
 Vibration    14          0.654              1.788              1.845
 Vibration    15          0.665              1.754              1.696
 Vibration    16          0.674              1.728              1.593
 Vibration    17          0.676              1.723              1.578
 Vibration    18          0.700              1.651              1.352
 Vibration    19          0.712              1.618              1.267
 Vibration    20          0.721              1.593              1.205
 Vibration    21          0.742              1.534              1.079
 Vibration    22          0.777              1.442              0.916
 Vibration    23          0.785              1.420              0.882
 Vibration    24          0.817              1.341              0.769
 Vibration    25          0.893              1.165              0.569
 Vibration    26          0.913              1.123              0.529
 Vibration    27          0.925              1.098              0.506

 Optimization completed.
    -- Stationary point found.
 Normal termination of Gaussian 16 at Tue Jul 21 17:30:09 2020.
