 Gaussian 16, Revision A.03,
 Gaussian 16:  ES64L-G16RevA.03 25-Dec-2016

 ----------------------------------------------------------------
 # wB97XD/aug-cc-pVDZ opt=(TS,CalcAll,MaxStep=4,NoEigenTest) freq
 ----------------------------------------------------------------

 ----
 blah
 ----
 Symbolic Z-matrix:
 Charge =  1 Multiplicity = 1

 SCF Done:  E(RwB97XD) =  -728.575740827     A.U. after   15 cycles
 SCF Done:  E(RwB97XD) =  -728.575742468     A.U. after   11 cycles
 Optimization completed.
    -- Stationary point found.
 ******    1 imaginary frequencies (negative Signs) ******
    1 imaginary frequencies ignored.
 Normal termination of Gaussian 16 at Sat Feb 11 14:41:07 2023.

 ----------------------------------------------------------------------
 #N Geom=AllCheck Guess=TCheck SCRF=Check GenChk RwB97XD/Aug-CC-pVDZ Fr
 eq
 ----------------------------------------------------------------------

 Structure from the checkpoint file:  "/gscratch/scrubbed/gds001/Gau-27004.chk"
 ----
 blah
 ----
 Charge =  1 Multiplicity = 1

                         Standard orientation:
 ---------------------------------------------------------------------
 Center     Atomic      Atomic             Coordinates (Angstroms)
 Number     Number       Type             X           Y           Z
 ---------------------------------------------------------------------
      1          7           0       -1.859771   -0.103778    0.595454
      2          6           0       -1.357517   -1.005950   -0.472198
      3          6           0       -1.737293   -0.290007   -1.790274
      4          6           0       -2.766734    0.787572   -1.381937
      5          6           0       -3.124892    0.427823    0.056716
      6          6           0        0.107338   -1.322984   -0.289427
      7          6           0        1.068140   -0.323609   -0.425503
      8          7           0        2.373829   -0.508995   -0.224014
      9          6           0        2.799132   -1.736495    0.100579
     10          6           0        1.927956   -2.810938    0.236226
     11          6           0        0.564018   -2.596412    0.047380
     12          8           0        3.299618    1.951105   -0.297648
     13          8           0       -0.522979    2.045516    1.269155
     14          1           0       -3.461320    1.280368    0.658320
     15          1           0       -3.646745    0.800389   -2.032076
     16          1           0       -2.314411    1.786476   -1.415923
     17          1           0       -2.157978   -1.014571   -2.495038
     18          1           0       -0.862019    0.152659   -2.277238
     19          1           0       -3.906555   -0.351119    0.090507
     20          1           0       -1.920899   -1.953263   -0.405495
     21          1           0        0.771395    0.683520   -0.719802
     22          1           0        3.871323   -1.857256    0.253142
     23          1           0        2.313023   -3.795971    0.492450
     24          1           0       -0.142241   -3.419767    0.161264
     25          6           0       -2.022390   -0.783282    1.880517
     26          1           0        3.128508    0.951195   -0.268978
     27          1           0       -0.993885    1.171080    0.952161
     28          1           0       -0.427803    2.017036    2.224492
     29          1           0        2.160003    2.673726   -0.120744
     30          8           0        1.183295    3.133763   -0.080786
     31          1           0        1.207868    4.092270   -0.004059
     32          1           0        0.447754    2.668947    0.559117
     33          1           0       -2.430686   -0.080816    2.617279
     34          1           0       -1.049519   -1.142465    2.237978
     35          1           0       -2.710614   -1.640956    1.800491
     36          1           0        4.100367    2.150543    0.193830
 ---------------------------------------------------------------------

 SCF Done:  E(RwB97XD) =  -728.575742467     A.U. after    1 cycles

 The electronic state is 1-A.
 Alpha  occ. eigenvalues --  -19.46581 -19.41923 -19.41896 -14.59603 -14.59577
 Alpha  occ. eigenvalues --  -10.46914 -10.46616 -10.46169 -10.44724 -10.44494
 Alpha  occ. eigenvalues --  -10.44263 -10.44053 -10.43600 -10.41440 -10.40987
 Alpha  occ. eigenvalues --   -1.32269  -1.26404  -1.25650  -1.19142  -1.17956
 Alpha  occ. eigenvalues --   -1.04923  -1.01551  -1.00401  -0.94653  -0.90146
 Alpha  occ. eigenvalues --   -0.86562  -0.85525  -0.82754  -0.82305  -0.80757
 Alpha  occ. eigenvalues --   -0.80059  -0.78117  -0.76437  -0.73905  -0.71842
 Alpha  occ. eigenvalues --   -0.70663  -0.69539  -0.66841  -0.66349  -0.66094
 Alpha  occ. eigenvalues --   -0.64666  -0.62956  -0.62602  -0.62494  -0.61259
 Alpha  occ. eigenvalues --   -0.60833  -0.60410  -0.59283  -0.57405  -0.56333
 Alpha  occ. eigenvalues --   -0.56075  -0.55883  -0.55038  -0.54335  -0.52616
 Alpha  occ. eigenvalues --   -0.49848  -0.49434  -0.46643  -0.46209
 Alpha virt. eigenvalues --   -0.09746  -0.08410  -0.07788  -0.05543  -0.05162
 Alpha virt. eigenvalues --   -0.04652  -0.03587  -0.03450  -0.02901  -0.02475
 Alpha virt. eigenvalues --   -0.01978  -0.01548  -0.01228  -0.00623  -0.00557

 Mulliken charges:
               1
     1  N   -1.425178
     2  C    0.913605
     3  C    1.144548
     4  C    0.809807
     5  C    1.375847
     6  C    0.898589
     7  C    1.139972
     8  N   -0.640372
     9  C    0.283719
    10  C    0.501239
    11  C    1.202269
    12  O   -0.485471
    13  O   -0.585576
    14  H   -0.512169
    15  H   -0.339142
    16  H   -0.260905
    17  H   -0.449764
    18  H   -0.433074
    19  H   -0.436375
    20  H   -0.833023
    21  H   -1.443950
    22  H   -0.606015
    23  H   -0.604142
    24  H   -0.888538
    25  C    1.028638
    26  H    0.383505
    27  H    0.506372
    28  H    0.192024
    29  H    0.581434
    30  O   -0.431244
    31  H    0.207793
    32  H    0.619186
    33  H   -0.248463
    34  H   -0.142783
    35  H   -0.191174
    36  H    0.168812
 Sum of Mulliken charges =   1.00000

 Dipole moment (field-independent basis, Debye):
    X=              1.8028    Y=              2.7592    Z=              2.9016  Tot=              4.3912
 Quadrupole moment (field-independent basis, Debye-Ang):
   XX=            -56.0984   YY=            -52.7347   ZZ=            -83.5605
   XY=              7.6584   XZ=              4.5034   YZ=              3.6303

  Exact polarizability: 177.065  -5.990 160.879   3.375  -6.842 121.258
 Approx polarizability: 182.902   0.058 180.128   4.261  -8.094 138.715

 ******    1 imaginary frequencies (negative Signs) ******

                      1                      2                      3
                      A                      A                      A
 Frequencies --   -181.0506                19.0231                53.2590
 Red. masses --      2.6155                 3.3806                 3.2482
 Frc consts  --      0.0505                 0.0007                 0.0054
 IR Inten    --    301.5451                 1.4496                 1.1579

                      4                      5                      6
                      A                      A                      A
 Frequencies --     56.0422                68.2079                90.2828
 Red. masses --      3.6706                 4.1418                 3.6612
 Frc consts  --      0.0068                 0.0114                 0.0176
 IR Inten    --      1.4636                10.1953                 5.1819

                      7                      8                      9
                      A                      A                      A
 Frequencies --     99.1860               118.5301               127.6120
 Red. masses --      3.8996                 5.1973                 4.6550
 Frc consts  --      0.0226                 0.0430                 0.0447
 IR Inten    --      4.4283                 8.4365                 3.7789

                     10                     11                     12
                      A                      A                      A
 Frequencies --    196.6210               202.5382               217.3958
 Red. masses --      2.3973                 2.4330                 3.5944
 Frc consts  --      0.0546                 0.0588                 0.1001
 IR Inten    --     16.7031                29.7675                10.3922

                     13                     14                     15
                      A                      A                      A
 Frequencies --    242.0430               264.1523               268.1778
 Red. masses --      1.3827                 1.3669                 2.1350
 Frc consts  --      0.0477                 0.0562                 0.0905
 IR Inten    --     70.0347                 2.7490                 1.5160

                     16                     17                     18
                      A                      A                      A
 Frequencies --    278.8035               326.4261               341.3594
 Red. masses --      1.2679                 2.9626                 1.5170
 Frc consts  --      0.0581                 0.1860                 0.1042
 IR Inten    --     68.2044               128.6830                96.1836

                     19                     20                     21
                      A                      A                      A
 Frequencies --    345.8879               400.4861               419.6093
 Red. masses --      2.3255                 2.9367                 3.0223
 Frc consts  --      0.1639                 0.2775                 0.3135
 IR Inten    --    234.8376                 7.6009                23.3353

                     22                     23                     24
                      A                      A                      A
 Frequencies --    431.6360               479.7223               549.9990
 Red. masses --      3.1200                 3.5185                 3.9380
 Frc consts  --      0.3425                 0.4771                 0.7019
 IR Inten    --     61.3306                56.0747                 2.9439

                     25                     26                     27
                      A                      A                      A
 Frequencies --    580.5058               637.7238               644.9175
 Red. masses --      2.9263                 2.8604                 1.2953
 Frc consts  --      0.5810                 0.6854                 0.3174
 IR Inten    --      2.2378                 1.5202                24.4989

                     28                     29                     30
                      A                      A                      A
 Frequencies --    662.4128               665.6847               720.3700
 Red. masses --      4.2549                 2.9999                 1.1097
 Frc consts  --      1.1000                 0.7832                 0.3393
 IR Inten    --     20.6253                 3.5648                18.7258

                     31                     32                     33
                      A                      A                      A
 Frequencies --    737.2218               748.8072               783.9622
 Red. masses --      1.6319                 1.2352                 1.8221
 Frc consts  --      0.5226                 0.4081                 0.6598
 IR Inten    --     11.2661                25.9548                30.7463

                     34                     35                     36
                      A                      A                      A
 Frequencies --    837.0301               853.7778               920.5524
 Red. masses --      1.6423                 2.1238                 1.9628
 Frc consts  --      0.6779                 0.9121                 0.9800
 IR Inten    --     27.0409                 7.4530                43.8277

                     37                     38                     39
                      A                      A                      A
 Frequencies --    931.1431               956.5551               970.6410
 Red. masses --      2.8435                 2.3834                 1.2570
 Frc consts  --      1.4526                 1.2849                 0.6977
 IR Inten    --      2.0177                 7.8911                24.5249

                     40                     41                     42
                      A                      A                      A
 Frequencies --    986.3364              1001.6552              1004.7449
 Red. masses --      1.6127                 1.4160                 1.3527
 Frc consts  --      0.9244                 0.8371                 0.8046
 IR Inten    --      1.1716                44.0480                28.4204

                     43                     44                     45
                      A                      A                      A
 Frequencies --   1026.7185              1057.2344              1062.0792
 Red. masses --      1.4102                 5.0469                 2.0128
 Frc consts  --      0.8759                 3.3236                 1.3377
 IR Inten    --      0.0268                 5.6675                 9.1086

                     46                     47                     48
                      A                      A                      A
 Frequencies --   1070.1443              1090.7279              1096.0964
 Red. masses --      1.9802                 1.4533                 1.6241
 Frc consts  --      1.3361                 1.0187                 1.1496
 IR Inten    --     12.3550                 0.3355                20.8277

                     49                     50                     51
                      A                      A                      A
 Frequencies --   1106.3739              1141.0256              1151.0830
 Red. masses --      1.6804                 1.2180                 1.3334
 Frc consts  --      1.2119                 0.9343                 1.0409
 IR Inten    --     23.8760                 6.1201                46.2564

                     52                     53                     54
                      A                      A                      A
 Frequencies --   1162.1395              1182.4817              1216.0780
 Red. masses --      1.2278                 1.9803                 1.6496
 Frc consts  --      0.9770                 1.6314                 1.4373
 IR Inten    --     62.8948                18.6408                15.0054

                     55                     56                     57
                      A                      A                      A
 Frequencies --   1233.5581              1243.0162              1257.4304
 Red. masses --      1.3901                 1.7315                 1.7785
 Frc consts  --      1.2463                 1.5763                 1.6568
 IR Inten    --     45.4218                27.6518                19.4607

                     58                     59                     60
                      A                      A                      A
 Frequencies --   1266.1851              1273.7152              1309.3482
 Red. masses --      1.4226                 1.6524                 1.3353
 Frc consts  --      1.3438                 1.5794                 1.3488
 IR Inten    --      3.2192                 7.7356                35.2575

                     61                     62                     63
                      A                      A                      A
 Frequencies --   1311.7445              1320.3494              1337.8358
 Red. masses --      1.2563                 3.0723                 1.3361
 Frc consts  --      1.2736                 3.1556                 1.4089
 IR Inten    --    261.9666                14.8066                10.1199

                     64                     65                     66
                      A                      A                      A
 Frequencies --   1364.5377              1367.2266              1380.8338
 Red. masses --      1.3180                 1.3888                 1.5282
 Frc consts  --      1.4459                 1.5296                 1.7168
 IR Inten    --     59.7907               384.2027                97.8808

                     67                     68                     69
                      A                      A                      A
 Frequencies --   1389.6439              1407.4264              1448.3264
 Red. masses --      1.2347                 1.5916                 1.1989
 Frc consts  --      1.4048                 1.8575                 1.4817
 IR Inten    --    811.5051                47.4779                33.3195

                     70                     71                     72
                      A                      A                      A
 Frequencies --   1481.2454              1486.7807              1490.2906
 Red. masses --      2.1019                 1.0672                 1.0868
 Frc consts  --      2.7172                 1.3899                 1.4222
 IR Inten    --     34.1139                 7.5084                 4.3213

                     73                     74                     75
                      A                      A                      A
 Frequencies --   1493.9768              1506.6600              1519.2526
 Red. masses --      1.0667                 1.0923                 1.1583
 Frc consts  --      1.4028                 1.4609                 1.5752
 IR Inten    --     11.3673                16.4544                 9.9672

                     76                     77                     78
                      A                      A                      A
 Frequencies --   1534.3374              1624.3937              1661.8026
 Red. masses --      2.1540                 1.0737                 3.1467
 Frc consts  --      2.9877                 1.6693                 5.1199
 IR Inten    --      6.9631               202.1104                23.7869

                     79                     80                     81
                      A                      A                      A
 Frequencies --   1685.8880              1692.4016              1754.8057
 Red. masses --      1.4159                 3.8850                 1.0667
 Frc consts  --      2.3710                 6.5562                 1.9353
 IR Inten    --      3.7794                25.5825                80.7968

                     82                     83                     84
                      A                      A                      A
 Frequencies --   1870.7549              2032.4296              2384.0526
 Red. masses --      1.1302                 1.0663                 1.0917
 Frc consts  --      2.3304                 2.5952                 3.6559
 IR Inten    --   1639.1651              2349.9195              1297.6159

                     85                     86                     87
                      A                      A                      A
 Frequencies --   2847.3073              3007.8218              3017.7720
 Red. masses --      1.0764                 1.0843                 1.0650
 Frc consts  --      5.1417                 5.7798                 5.7145
 IR Inten    --   2477.5035                 9.3305                18.3468

                     88                     89                     90
                      A                      A                      A
 Frequencies --   3022.5088              3087.7599              3104.9053
 Red. masses --      1.0474                 1.0659                 1.0635
 Frc consts  --      5.6375                 5.9876                 6.0407
 IR Inten    --     32.5743                16.7369                16.9770

                     91                     92                     93
                      A                      A                      A
 Frequencies --   3112.0150              3129.8070              3146.9494
 Red. masses --      1.0946                 1.0958                 1.1038
 Frc consts  --      6.2460                 6.3241                 6.4408
 IR Inten    --     16.4001                17.3943                 0.9879

                     94                     95                     96
                      A                      A                      A
 Frequencies --   3147.8483              3162.7595              3202.9030
 Red. masses --      1.1048                 1.1045                 1.0904
 Frc consts  --      6.4498                 6.5095                 6.5909
 IR Inten    --     12.9478                21.2205                 9.7871

                     97                     98                     99
                      A                      A                      A
 Frequencies --   3204.6974              3215.4900              3241.9716
 Red. masses --      1.0917                 1.0928                 1.0984
 Frc consts  --      6.6055                 6.6568                 6.8020
 IR Inten    --      1.4400                 3.2009                 0.9495

                    100                    101                    102
                      A                      A                      A
 Frequencies --   3906.8669              3926.1662              3929.9504
 Red. masses --      1.0663                 1.0660                 1.0665
 Frc consts  --      9.5897                 9.6816                 9.7048
 IR Inten    --    172.6970                82.8359               160.2214

 - Thermochemistry -
 -------------------
 Temperature   298.150 Kelvin.  Pressure   1.00000 Atm.
 Atom     1 has atomic number  7 and mass  14.00307

 Molecular mass:   217.15522 amu.
 Principal axes and moments of inertia in atomic units:
                           1         2         3
     Eigenvalues --  2942.340243965.412105592.59755
           X            0.99960   0.02818   0.00272
           Y           -0.02816   0.99959  -0.00537
           Z           -0.00287   0.00529   0.99998
 This molecule is an asymmetric top.
 Rotational symmetry number  1.
 Warning -- assumption of classical behavior for rotation
           may cause significant error
 Rotational temperatures (Kelvin)      0.02944     0.02184     0.01549
 Rotational constants (GHZ):           0.61337     0.45512     0.32270
    1 imaginary frequencies ignored.
 Zero-point vibrational energy     820333.0 (Joules/Mol)
                                  196.06430 (Kcal/Mol)
 Warning -- explicit consideration of  24 degrees of freedom as
           vibrations may cause significant error
 Vibrational temperatures:     27.37    76.63    80.63    98.14   129.90
          (Kelvin)            142.71   170.54   183.61   282.89   291.41
                              312.78   348.25   380.06   385.85   401.14
                              469.65   491.14   497.66   576.21   603.72
                              621.03   690.21   791.33   835.22   917.54
                              927.89   953.06   957.77  1036.45  1060.70
                             1077.37  1127.95  1204.30  1228.40  1324.47
                             1339.71  1376.27  1396.54  1419.12  1441.16
                             1445.60  1477.22  1521.12  1528.10  1539.70
                             1569.31  1577.04  1591.83  1641.68  1656.15
                             1672.06  1701.33  1749.67  1774.81  1788.42
                             1809.16  1821.76  1832.59  1883.86  1887.31
                             1899.69  1924.85  1963.27  1967.13  1986.71
                             1999.39  2024.97  2083.82  2131.18  2139.15
                             2144.20  2149.50  2167.75  2185.87  2207.57
                             2337.14  2390.96  2425.62  2434.99  2524.77
                             2691.60  2924.21  3430.12  4096.64  4327.58
                             4341.90  4348.72  4442.60  4467.27  4477.50
                             4503.09  4527.76  4529.05  4550.51  4608.26
                             4610.84  4626.37  4664.47  5621.11  5648.88
                             5654.32

 Zero-point correction=                           0.312448 (Hartree/Particle)
 Thermal correction to Energy=                    0.329471
 Thermal correction to Enthalpy=                  0.330415
 Thermal correction to Gibbs Free Energy=         0.266854
 Sum of electronic and zero-point Energies=           -728.263294
 Sum of electronic and thermal Energies=              -728.246272
 Sum of electronic and thermal Enthalpies=            -728.245328
 Sum of electronic and thermal Free Energies=         -728.308889

                     E (Thermal)             CV                S
                      KCal/Mol        Cal/Mol-Kelvin    Cal/Mol-Kelvin
 Total                  206.746             63.500            133.776
 Electronic               0.000              0.000              0.000
 Translational            0.889              2.981             42.029
 Rotational               0.889              2.981             32.545
 Vibrational            204.969             57.538             59.201
 Vibration     1          0.593              1.986              6.734
 Vibration     2          0.596              1.976              4.693
 Vibration     3          0.596              1.975              4.592
 Vibration     4          0.598              1.969              4.204
 Vibration     5          0.602              1.956              3.654
 Vibration     6          0.604              1.950              3.470
 Vibration     7          0.609              1.934              3.124
 Vibration     8          0.611              1.926              2.982
 Vibration     9          0.636              1.845              2.164
 Vibration    10          0.639              1.836              2.110
 Vibration    11          0.646              1.815              1.981
 Vibration    12          0.658              1.776              1.788
 Vibration    13          0.671              1.739              1.634
 Vibration    14          0.673              1.732              1.608
 Vibration    15          0.679              1.713              1.541
 Vibration    16          0.710              1.623              1.278
 Vibration    17          0.721              1.593              1.206
 Vibration    18          0.724              1.584              1.185
 Vibration    19          0.766              1.469              0.961
 Vibration    20          0.782              1.428              0.893
 Vibration    21          0.793              1.401              0.853
 Vibration    22          0.836              1.295              0.711
 Vibration    23          0.905              1.140              0.544
 Vibration    24          0.937              1.073              0.484

 Optimization completed.
    -- Stationary point found.
 Normal termination of Gaussian 16 at Sat Feb 11 15:34:12 2023.
