 Gaussian 16, Revision A.03,
 Gaussian 16:  ES64L-G16RevA.03 25-Dec-2016

 ----------------------------------------
 # wB97XD/aug-cc-pVDZ opt(MaxStep=1) freq
 ----------------------------------------

 ----
 blah
 ----
 Symbolic Z-matrix:
 Charge =  1 Multiplicity = 1

 SCF Done:  E(RwB97XD) =  -805.022016639     A.U. after   16 cycles
 SCF Done:  E(RwB97XD) =  -805.022022654     A.U. after   10 cycles
 SCF Done:  E(RwB97XD) =  -805.022047410     A.U. after   12 cycles
 SCF Done:  E(RwB97XD) =  -805.022059392     A.U. after   12 cycles
 SCF Done:  E(RwB97XD) =  -805.022076494     A.U. after   11 cycles
 SCF Done:  E(RwB97XD) =  -805.022089643     A.U. after   11 cycles
 SCF Done:  E(RwB97XD) =  -805.022106936     A.U. after   12 cycles
 SCF Done:  E(RwB97XD) =  -805.022115961     A.U. after   10 cycles
 SCF Done:  E(RwB97XD) =  -805.022122564     A.U. after   10 cycles
 SCF Done:  E(RwB97XD) =  -805.022126848     A.U. after    9 cycles
 SCF Done:  E(RwB97XD) =  -805.022142820     A.U. after    9 cycles
 SCF Done:  E(RwB97XD) =  -805.022143041     A.U. after    9 cycles
 SCF Done:  E(RwB97XD) =  -805.022143214     A.U. after    8 cycles
 SCF Done:  E(RwB97XD) =  -805.022143329     A.U. after    9 cycles
 SCF Done:  E(RwB97XD) =  -805.022143385     A.U. after    9 cycles
 SCF Done:  E(RwB97XD) =  -805.022143439     A.U. after    9 cycles
 SCF Done:  E(RwB97XD) =  -805.022143474     A.U. after    8 cycles
 SCF Done:  E(RwB97XD) =  -805.022143494     A.U. after    8 cycles
 SCF Done:  E(RwB97XD) =  -805.022143504     A.U. after    7 cycles
 Optimization completed.
    -- Stationary point found.
 Normal termination of Gaussian 16 at Thu Feb 23 16:48:44 2023.

 ----------------------------------------------------------------------
 #N Geom=AllCheck Guess=TCheck SCRF=Check GenChk RwB97XD/Aug-CC-pVDZ Fr
 eq
 ----------------------------------------------------------------------

 Structure from the checkpoint file:  "/gscratch/scrubbed/gds001/Gau-3024.chk"
 ----
 blah
 ----
 Charge =  1 Multiplicity = 1

                         Standard orientation:
 ---------------------------------------------------------------------
 Center     Atomic      Atomic             Coordinates (Angstroms)
 Number     Number       Type             X           Y           Z
 ---------------------------------------------------------------------
      1          7           0       -1.008265    2.118459   -0.481377
      2          6           0       -0.737504    3.253993    0.173532
      3          6           0        0.473554    3.466128    0.821219
      4          6           0        1.428671    2.452317    0.800617
      5          6           0        1.161576    1.264911    0.120225
      6          6           0       -0.076391    1.162623   -0.513539
      7          6           0        2.156130    0.131344    0.072001
      8          6           0        2.647717   -0.263363   -1.331335
      9          6           0        3.008753   -1.763286   -1.207145
     10          6           0        2.632424   -2.130061    0.234753
     11          7           0        1.612539   -1.135002    0.605728
     12          6           0        1.348744   -1.096147    2.041299
     13          1           0       -1.520360    4.012285    0.177331
     14          1           0        0.658872    4.404574    1.340111
     15          1           0        2.381079    2.585751    1.315134
     16          1           0       -0.337698    0.264114   -1.074062
     17          1           0        3.028451    0.421157    0.688189
     18          1           0        3.496014    0.358156   -1.635445
     19          1           0        1.851344   -0.109769   -2.068990
     20          1           0        4.069390   -1.953935   -1.398417
     21          1           0        2.437481   -2.359883   -1.927825
     22          1           0        3.506180   -2.039444    0.903944
     23          1           0        2.230831   -3.144887    0.347929
     24          1           0        2.259490   -0.849784    2.614565
     25          1           0        0.981012   -2.074768    2.371108
     26          1           0        0.579919   -0.345231    2.258911
     27          8           0       -3.235760    0.994038   -1.366475
     28          8           0       -0.589877   -2.131509   -0.553480
     29          8           0       -2.989151   -1.382928   -0.708280
     30          1           0       -3.506463    1.244634   -2.253392
     31          1           0       -0.322878   -2.927811   -1.017427
     32          1           0       -3.518611   -1.568452    0.113040
     33          1           0       -2.448411    1.563049   -1.096601
     34          1           0       -3.092388   -0.389684   -1.018475
     35          1           0       -2.014836   -1.675772   -0.611434
     36          1           0        0.231765   -1.715351   -0.124808
     37          8           0       -4.391946   -1.920166    1.442041
     38          1           0       -4.809992   -1.246918    1.986743
     39          1           0       -4.978287   -2.682466    1.459210
 ---------------------------------------------------------------------

 SCF Done:  E(RwB97XD) =  -805.022143504     A.U. after    1 cycles

 The electronic state is 1-A.
 Alpha  occ. eigenvalues --  -19.44998 -19.43221 -19.40096 -19.39972 -14.58523
 Alpha  occ. eigenvalues --  -14.58137 -10.45807 -10.45657 -10.45117 -10.43803
 Alpha  occ. eigenvalues --  -10.43581 -10.43381 -10.42926 -10.42721 -10.40692
 Alpha  occ. eigenvalues --  -10.40416  -1.31189  -1.27414  -1.24438  -1.23906
 Alpha  occ. eigenvalues --   -1.18073  -1.16881  -1.03955  -1.00524  -0.99480
 Alpha  occ. eigenvalues --   -0.93721  -0.89033  -0.85616  -0.84533  -0.81098
 Alpha  occ. eigenvalues --   -0.80591  -0.79410  -0.79193  -0.77920  -0.76666
 Alpha  occ. eigenvalues --   -0.75071  -0.72781  -0.70893  -0.69912  -0.68772
 Alpha  occ. eigenvalues --   -0.66393  -0.65470  -0.64840  -0.63871  -0.62897
 Alpha  occ. eigenvalues --   -0.62177  -0.61499  -0.61207  -0.59887  -0.59560
 Alpha  occ. eigenvalues --   -0.59268  -0.58263  -0.56449  -0.56324  -0.55319
 Alpha  occ. eigenvalues --   -0.54657  -0.54247  -0.53686  -0.53589  -0.51801
 Alpha  occ. eigenvalues --   -0.48887  -0.48247  -0.45653  -0.44713
 Alpha virt. eigenvalues --   -0.08843  -0.07486  -0.07119  -0.05358  -0.04753
 Alpha virt. eigenvalues --   -0.04514  -0.03416  -0.02969  -0.02825  -0.02407
 Alpha virt. eigenvalues --   -0.01930  -0.01270  -0.00950  -0.00764  -0.00210

 Mulliken charges:
               1
     1  N   -0.627572
     2  C    0.300619
     3  C    0.503978
     4  C    1.249259
     5  C    0.523445
     6  C    1.058449
     7  C    1.338657
     8  C    1.054597
     9  C    0.815367
    10  C    1.292940
    11  N   -1.365332
    12  C    0.971975
    13  H   -0.607333
    14  H   -0.595492
    15  H   -0.909593
    16  H   -1.317972
    17  H   -0.826264
    18  H   -0.531474
    19  H   -0.300150
    20  H   -0.270702
    21  H   -0.310905
    22  H   -0.543135
    23  H   -0.606367
    24  H   -0.176797
    25  H   -0.232652
    26  H   -0.148626
    27  O   -0.503725
    28  O   -0.552424
    29  O   -0.370886
    30  H    0.144797
    31  H    0.146667
    32  H    0.376049
    33  H    0.387139
    34  H    0.500945
    35  H    0.490148
    36  H    0.649625
    37  O   -0.325354
    38  H    0.159014
    39  H    0.159086
 Sum of Mulliken charges =   1.00000

 Dipole moment (field-independent basis, Debye):
    X=             -4.4173    Y=             -1.8682    Z=              1.2534  Tot=              4.9572
 Quadrupole moment (field-independent basis, Debye-Ang):
   XX=            -40.0553   YY=            -64.8499   ZZ=            -83.6415
   XY=              8.5565   XZ=             -4.6849   YZ=              0.0788

  Exact polarizability: 172.817 -13.143 179.144   7.016   9.944 137.966
 Approx polarizability: 183.768  -7.334 187.089  12.393  13.882 157.635

                      1                      2                      3
                      A                      A                      A
 Frequencies --     15.9462                27.8634                49.6077
 Red. masses --      4.9391                 4.3817                 3.5760
 Frc consts  --      0.0007                 0.0020                 0.0052
 IR Inten    --      1.6456                 0.8572                 5.5020

                      4                      5                      6
                      A                      A                      A
 Frequencies --     53.4358                61.7251                72.5871
 Red. masses --      3.5967                 4.0897                 2.6312
 Frc consts  --      0.0061                 0.0092                 0.0082
 IR Inten    --      6.6282                 2.5713                 6.7217

                      7                      8                      9
                      A                      A                      A
 Frequencies --     79.9188                85.2242                95.3297
 Red. masses --      2.2672                 2.5118                 2.0471
 Frc consts  --      0.0085                 0.0107                 0.0110
 IR Inten    --      2.4468                 5.9071                12.2568

                     10                     11                     12
                      A                      A                      A
 Frequencies --    106.1340               122.5151               142.7990
 Red. masses --      4.3279                 3.7666                 1.1418
 Frc consts  --      0.0287                 0.0333                 0.0137
 IR Inten    --      1.6853                14.6923                54.9534

                     13                     14                     15
                      A                      A                      A
 Frequencies --    161.6549               176.1373               205.3128
 Red. masses --      3.1172                 2.6441                 3.8002
 Frc consts  --      0.0480                 0.0483                 0.0944
 IR Inten    --      9.2431                 0.0713                26.3018

                     16                     17                     18
                      A                      A                      A
 Frequencies --    222.0599               249.0345               264.5489
 Red. masses --      4.2188                 1.1756                 1.3144
 Frc consts  --      0.1226                 0.0430                 0.0542
 IR Inten    --     22.8859                 1.0545               137.7877

                     19                     20                     21
                      A                      A                      A
 Frequencies --    265.6393               291.5450               315.3627
 Red. masses --      2.3135                 4.3481                 1.8756
 Frc consts  --      0.0962                 0.2177                 0.1099
 IR Inten    --     24.6544                73.1945                19.4473

                     22                     23                     24
                      A                      A                      A
 Frequencies --    323.3100               356.9364               371.5630
 Red. masses --      1.6501                 1.4910                 2.7648
 Frc consts  --      0.1016                 0.1119                 0.2249
 IR Inten    --     57.9121                14.5379                88.8945

                     25                     26                     27
                      A                      A                      A
 Frequencies --    401.1261               405.4420               421.4543
 Red. masses --      3.2934                 2.9175                 3.1415
 Frc consts  --      0.3122                 0.2826                 0.3288
 IR Inten    --    154.7800                 0.9886                 5.1017

                     28                     29                     30
                      A                      A                      A
 Frequencies --    443.4304               544.1596               576.4631
 Red. masses --      3.4098                 3.5502                 2.7703
 Frc consts  --      0.3950                 0.6194                 0.5424
 IR Inten    --     35.8976                 8.7516                 2.0772

                     31                     32                     33
                      A                      A                      A
 Frequencies --    617.8605               637.5445               659.2591
 Red. masses --      1.2206                 2.5169                 5.6080
 Frc consts  --      0.2745                 0.6027                 1.4360
 IR Inten    --     28.1462                 9.2330                24.9077

                     34                     35                     36
                      A                      A                      A
 Frequencies --    680.0550               686.9669               740.0845
 Red. masses --      5.2165                 1.2102                 1.9194
 Frc consts  --      1.4214                 0.3365                 0.6194
 IR Inten    --      1.5043                55.0133                31.4228

                     37                     38                     39
                      A                      A                      A
 Frequencies --    755.1522               782.7653               837.6895
 Red. masses --      1.0288                 1.4212                 1.6937
 Frc consts  --      0.3457                 0.5131                 0.7002
 IR Inten    --     16.3874                14.0701                26.0306

                     40                     41                     42
                      A                      A                      A
 Frequencies --    841.5260               917.8429               929.8199
 Red. masses --      2.2791                 1.0519                 1.6321
 Frc consts  --      0.9509                 0.5221                 0.8314
 IR Inten    --     12.7378                67.6465                12.4802

                     43                     44                     45
                      A                      A                      A
 Frequencies --    933.2895               952.7011               976.1638
 Red. masses --      3.2008                 2.4067                 1.3388
 Frc consts  --      1.6426                 1.2870                 0.7517
 IR Inten    --      0.3887                 4.8566                 6.9662

                     46                     47                     48
                      A                      A                      A
 Frequencies --    986.7664              1005.0364              1009.7926
 Red. masses --      1.5081                 1.1367                 1.8010
 Frc consts  --      0.8652                 0.6765                 1.0820
 IR Inten    --      0.6076                35.1645                14.8869

                     49                     50                     51
                      A                      A                      A
 Frequencies --   1023.4844              1031.2594              1054.7748
 Red. masses --      1.2414                 1.2593                 4.4099
 Frc consts  --      0.7661                 0.7891                 2.8907
 IR Inten    --     12.2055                 8.9301                 1.0803

                     52                     53                     54
                      A                      A                      A
 Frequencies --   1056.5540              1071.9812              1096.6580
 Red. masses --      2.4695                 1.8653                 1.8717
 Frc consts  --      1.6242                 1.2629                 1.3262
 IR Inten    --     10.8753                13.6317                 8.8711

                     55                     56                     57
                      A                      A                      A
 Frequencies --   1118.2784              1133.0709              1145.4110
 Red. masses --      2.2801                 1.1006                 1.2759
 Frc consts  --      1.6800                 0.8325                 0.9862
 IR Inten    --      1.4517                72.9255                 1.7583

                     58                     59                     60
                      A                      A                      A
 Frequencies --   1155.0434              1196.1823              1219.3189
 Red. masses --      1.3941                 1.8799                 1.5359
 Frc consts  --      1.0958                 1.5848                 1.3454
 IR Inten    --     23.7460                20.1082                16.1594

                     61                     62                     63
                      A                      A                      A
 Frequencies --   1237.9200              1241.4342              1257.6852
 Red. masses --      1.4746                 1.7619                 1.7223
 Frc consts  --      1.3314                 1.5999                 1.6051
 IR Inten    --      4.9172                 7.8570                18.3692

                     64                     65                     66
                      A                      A                      A
 Frequencies --   1264.2570              1290.8498              1294.0590
 Red. masses --      1.6894                 1.4163                 1.1894
 Frc consts  --      1.5910                 1.3904                 1.1736
 IR Inten    --     11.3246                36.4674               124.4150

                     67                     68                     69
                      A                      A                      A
 Frequencies --   1298.1831              1319.0843              1328.7112
 Red. masses --      1.3223                 3.9384                 1.3968
 Frc consts  --      1.3130                 4.0375                 1.4529
 IR Inten    --     40.7142                 2.8122                 3.6956

                     70                     71                     72
                      A                      A                      A
 Frequencies --   1365.0710              1376.1509              1381.2837
 Red. masses --      1.3398                 1.4726                 1.4849
 Frc consts  --      1.4710                 1.6431                 1.6692
 IR Inten    --      4.7144                 3.0368                 4.5859

                     73                     74                     75
                      A                      A                      A
 Frequencies --   1414.0595              1449.3625              1483.2635
 Red. masses --      1.6049                 1.2047                 1.5118
 Frc consts  --      1.8907                 1.4911                 1.9597
 IR Inten    --      4.1354                 1.8286                20.1914

                     76                     77                     78
                      A                      A                      A
 Frequencies --   1485.4790              1487.9954              1491.4126
 Red. masses --      1.2635                 1.1098                 1.0843
 Frc consts  --      1.6427                 1.4478                 1.4210
 IR Inten    --     23.2602                 3.4317                 3.8015

                     79                     80                     81
                      A                      A                      A
 Frequencies --   1508.3353              1523.6027              1535.2783
 Red. masses --      1.0955                 1.1697                 2.1521
 Frc consts  --      1.4684                 1.5998                 2.9887
 IR Inten    --     11.1329                12.3322                11.8303

                     82                     83                     84
                      A                      A                      A
 Frequencies --   1620.7272              1632.2861              1666.0275
 Red. masses --      1.0804                 1.0792                 3.0436
 Frc consts  --      1.6720                 1.6941                 4.9774
 IR Inten    --     17.9884                66.2808                21.9339

                     85                     86                     87
                      A                      A                      A
 Frequencies --   1669.7666              1689.1689              1702.6040
 Red. masses --      1.2315                 4.9131                 1.0928
 Frc consts  --      2.0229                 8.2595                 1.8665
 IR Inten    --     13.5614                14.4556                17.2213

                     88                     89                     90
                      A                      A                      A
 Frequencies --   1723.6273              2314.0228              2685.0148
 Red. masses --      1.0608                 1.1301                 1.0797
 Frc consts  --      1.8569                 3.5653                 4.5862
 IR Inten    --      6.4601              2297.5877              3745.5178

                     91                     92                     93
                      A                      A                      A
 Frequencies --   2875.2633              2969.4696              2984.8313
 Red. masses --      1.0746                 1.0740                 1.0834
 Frc consts  --      5.2343                 5.5799                 5.6870
 IR Inten    --    452.4666              2489.1667                 0.3321

                     94                     95                     96
                      A                      A                      A
 Frequencies --   3008.7601              3015.5224              3090.6903
 Red. masses --      1.0518                 1.0663                 1.0649
 Frc consts  --      5.6100                 5.7127                 5.9931
 IR Inten    --     10.5481                33.6799                13.7538

                     97                     98                     99
                      A                      A                      A
 Frequencies --   3100.8837              3112.9309              3116.4973
 Red. masses --      1.0678                 1.0886                 1.0912
 Frc consts  --      6.0496                 6.2155                 6.2446
 IR Inten    --     20.8208                16.6706                35.7338

                    100                    101                    102
                      A                      A                      A
 Frequencies --   3146.0462              3153.1417              3162.5812
 Red. masses --      1.1038                 1.1047                 1.1046
 Frc consts  --      6.4369                 6.4710                 6.5091
 IR Inten    --      0.5865                13.9849                22.4955

                    103                    104                    105
                      A                      A                      A
 Frequencies --   3200.1919              3202.9322              3215.9558
 Red. masses --      1.0915                 1.0915                 1.0923
 Frc consts  --      6.5858                 6.5972                 6.6559
 IR Inten    --      1.5821                 1.7187                 4.9442

                    106                    107                    108
                      A                      A                      A
 Frequencies --   3241.7162              3276.2291              3868.2848
 Red. masses --      1.0985                 1.0654                 1.0451
 Frc consts  --      6.8015                 6.7375                 9.2136
 IR Inten    --      1.7629              1250.9403                40.9005

                    109                    110                    111
                      A                      A                      A
 Frequencies --   3930.4371              3943.5036              3970.5442
 Red. masses --      1.0663                 1.0662                 1.0832
 Frc consts  --      9.7051                 9.7691                10.0615
 IR Inten    --    127.2340                90.6711               133.3257

 - Thermochemistry -
 -------------------
 Temperature   298.150 Kelvin.  Pressure   1.00000 Atm.
 Atom     1 has atomic number  7 and mass  14.00307

 Molecular mass:   235.16578 amu.
 Principal axes and moments of inertia in atomic units:
                           1         2         3
     Eigenvalues --  3896.043305345.375607492.09612
           X            0.99992  -0.01224  -0.00217
           Y            0.01224   0.99992  -0.00073
           Z            0.00218   0.00070   1.00000
 This molecule is an asymmetric top.
 Rotational symmetry number  1.
 Warning -- assumption of classical behavior for rotation
           may cause significant error
 Rotational temperatures (Kelvin)      0.02223     0.01620     0.01156
 Rotational constants (GHZ):           0.46322     0.33763     0.24089
 Zero-point vibrational energy     894111.3 (Joules/Mol)
                                  213.69773 (Kcal/Mol)
 Warning -- explicit consideration of  31 degrees of freedom as
           vibrations may cause significant error
 Vibrational temperatures:     22.94    40.09    71.37    76.88    88.81
          (Kelvin)            104.44   114.99   122.62   137.16   152.70
                              176.27   205.46   232.59   253.42   295.40
                              319.49   358.31   380.63   382.20   419.47
                              453.74   465.17   513.55   534.60   577.13
                              583.34   606.38   638.00   782.92   829.40
                              888.96   917.28   948.53   978.45   988.39
                             1064.82  1086.50  1126.22  1205.25  1210.77
                             1320.57  1337.80  1342.80  1370.72  1404.48
                             1419.74  1446.02  1452.87  1472.57  1483.75
                             1517.59  1520.15  1542.34  1577.85  1608.95
                             1630.24  1647.99  1661.85  1721.04  1754.33
                             1781.09  1786.15  1809.53  1818.98  1857.25
                             1861.86  1867.80  1897.87  1911.72  1964.03
                             1979.97  1987.36  2034.52  2085.31  2134.09
                             2137.27  2140.89  2145.81  2170.16  2192.12
                             2208.92  2331.86  2348.50  2397.04  2402.42
                             2430.34  2449.67  2479.92  3329.36  3863.14
                             4136.86  4272.40  4294.51  4328.93  4338.66
                             4446.81  4461.48  4478.81  4483.94  4526.46
                             4536.67  4550.25  4604.36  4608.31  4627.04
                             4664.11  4713.76  5565.60  5655.02  5673.82
                             5712.73

 Zero-point correction=                           0.340549 (Hartree/Particle)
 Thermal correction to Energy=                    0.361867
 Thermal correction to Enthalpy=                  0.362811
 Thermal correction to Gibbs Free Energy=         0.288220
 Sum of electronic and zero-point Energies=           -804.681594
 Sum of electronic and thermal Energies=              -804.660277
 Sum of electronic and thermal Enthalpies=            -804.659333
 Sum of electronic and thermal Free Energies=         -804.733924

                     E (Thermal)             CV                S
                      KCal/Mol        Cal/Mol-Kelvin    Cal/Mol-Kelvin
 Total                  227.075             75.509            156.990
 Electronic               0.000              0.000              0.000
 Translational            0.889              2.981             42.267
 Rotational               0.889              2.981             33.411
 Vibrational            225.297             69.548             81.312
 Vibration     1          0.593              1.986              7.084
 Vibration     2          0.593              1.984              5.976
 Vibration     3          0.595              1.978              4.833
 Vibration     4          0.596              1.976              4.686
 Vibration     5          0.597              1.973              4.401
 Vibration     6          0.599              1.967              4.082
 Vibration     7          0.600              1.963              3.893
 Vibration     8          0.601              1.959              3.767
 Vibration     9          0.603              1.953              3.548
 Vibration    10          0.605              1.944              3.338
 Vibration    11          0.610              1.930              3.060
 Vibration    12          0.616              1.910              2.766
 Vibration    13          0.622              1.889              2.530
 Vibration    14          0.628              1.872              2.369
 Vibration    15          0.640              1.832              2.085
 Vibration    16          0.648              1.807              1.942
 Vibration    17          0.662              1.764              1.737
 Vibration    18          0.671              1.738              1.632
 Vibration    19          0.671              1.736              1.624
 Vibration    20          0.687              1.689              1.465
 Vibration    21          0.703              1.644              1.334
 Vibration    22          0.708              1.629              1.293
 Vibration    23          0.732              1.561              1.135
 Vibration    24          0.743              1.531              1.073
 Vibration    25          0.767              1.468              0.959
 Vibration    26          0.770              1.458              0.943
 Vibration    27          0.784              1.424              0.887
 Vibration    28          0.803              1.375              0.816
 Vibration    29          0.899              1.152              0.556
 Vibration    30          0.933              1.082              0.492
 Vibration    31          0.978              0.994              0.420

                           ! Non-Optimized Parameters !
 Normal termination of Gaussian 16 at Thu Feb 23 17:56:25 2023.
