 Gaussian 16, Revision A.03,
 Gaussian 16:  ES64L-G16RevA.03 25-Dec-2016

 ---------------------------------------------
 # wB97XD/aug-cc-pVDZ opt freq Temperature=130
 ---------------------------------------------

 --------
 Nicotine
 --------
 Symbolic Z-matrix:
 Charge =  1 Multiplicity = 1

 SCF Done:  E(RwB97XD) =  -805.031559201     A.U. after   15 cycles
 SCF Done:  E(RwB97XD) =  -805.032357406     A.U. after   14 cycles
 SCF Done:  E(RwB97XD) =  -805.032092794     A.U. after   14 cycles
 SCF Done:  E(RwB97XD) =  -805.032477682     A.U. after   14 cycles
 SCF Done:  E(RwB97XD) =  -805.032496230     A.U. after   11 cycles
 SCF Done:  E(RwB97XD) =  -805.032486970     A.U. after   11 cycles
 SCF Done:  E(RwB97XD) =  -805.032482742     A.U. after   11 cycles
 SCF Done:  E(RwB97XD) =  -805.032501610     A.U. after   11 cycles
 SCF Done:  E(RwB97XD) =  -805.032503574     A.U. after   10 cycles
 SCF Done:  E(RwB97XD) =  -805.032508164     A.U. after   10 cycles
 SCF Done:  E(RwB97XD) =  -805.032510720     A.U. after   10 cycles
 SCF Done:  E(RwB97XD) =  -805.032511548     A.U. after   10 cycles
 SCF Done:  E(RwB97XD) =  -805.032512827     A.U. after   10 cycles
 SCF Done:  E(RwB97XD) =  -805.032513480     A.U. after   11 cycles
 SCF Done:  E(RwB97XD) =  -805.032514165     A.U. after   10 cycles
 SCF Done:  E(RwB97XD) =  -805.032514408     A.U. after   10 cycles
 SCF Done:  E(RwB97XD) =  -805.032514652     A.U. after    8 cycles
 SCF Done:  E(RwB97XD) =  -805.032514814     A.U. after    8 cycles
 SCF Done:  E(RwB97XD) =  -805.032514922     A.U. after    8 cycles
 Optimization completed.
    -- Stationary point found.
 Normal termination of Gaussian 16 at Mon Jul 12 14:57:23 2021.

 ----------------------------------------------------------------------
 #N Geom=AllCheck Guess=TCheck SCRF=Check GenChk RwB97XD/Aug-CC-pVDZ Fr
 eq
 ----------------------------------------------------------------------

 Structure from the checkpoint file:  "NicPyWa4h3.chk"
 --------
 Nicotine
 --------
 Charge =  1 Multiplicity = 1

                         Standard orientation:
 ---------------------------------------------------------------------
 Center     Atomic      Atomic             Coordinates (Angstroms)
 Number     Number       Type             X           Y           Z
 ---------------------------------------------------------------------
      1          6           0        1.511380    2.336691    0.919407
      2          6           0        1.204518    1.154993    0.241439
      3          6           0       -0.013494    1.103034   -0.427770
      4          7           0       -0.849251    2.148918   -0.404504
      5          6           0       -0.571125    3.291959    0.240221
      6          6           0        0.627709    3.416776    0.915798
      7          6           0        2.161146   -0.012932    0.213598
      8          7           0        1.528115   -1.298379    0.531379
      9          6           0        2.563584   -2.284754    0.189206
     10          6           0        3.135082   -1.782940   -1.144161
     11          6           0        2.809784   -0.270097   -1.159272
     12          8           0       -3.193222    1.507246   -1.384940
     13          8           0       -2.878259   -0.753614   -0.113537
     14          8           0       -0.603070   -1.921059   -1.154804
     15          1           0        2.125890   -3.289005    0.134489
     16          1           0        4.210281   -1.976005   -1.211594
     17          1           0        2.657187   -2.286572   -1.991465
     18          1           0        3.693193    0.360925   -1.302712
     19          1           0        2.098864   -0.030883   -1.959515
     20          1           0        3.345478   -2.301262    0.970492
     21          1           0        2.957368    0.194343    0.955809
     22          1           0       -0.354789    0.232791   -0.986084
     23          1           0       -1.327497    4.071737    0.198386
     24          1           0        0.860499    4.340006    1.440792
     25          1           0        2.453720    2.415242    1.462318
     26          6           0        1.061167   -1.404786    1.908424
     27          1           0       -1.784970    2.019695   -0.888974
     28          1           0        0.175364   -1.799483   -0.556744
     29          1           0       -0.506204   -2.770053   -1.590773
     30          1           0       -3.241284    0.596930   -0.992983
     31          1           0       -3.545524    1.467388   -2.276391
     32          1           0       -3.559689   -1.315307    0.293867
     33          1           0       -2.184467   -1.341875   -0.460248
     34          8           0       -4.811229   -2.392401    1.047482
     35          1           0       -5.086879   -2.316062    1.964684
     36          1           0       -5.580281   -2.717526    0.571995
     37          1           0        0.646652   -2.405657    2.074384
     38          1           0        0.264177   -0.674223    2.093872
     39          1           0        1.878608   -1.237952    2.633311
 ---------------------------------------------------------------------

 SCF Done:  E(RwB97XD) =  -805.032514922     A.U. after    1 cycles

 The electronic state is 1-A.
 Alpha  occ. eigenvalues --  -19.39140 -19.38305 -19.37985 -19.35884 -14.66940
 Alpha  occ. eigenvalues --  -14.57936 -10.50626 -10.50113 -10.47508 -10.46978
 Alpha  occ. eigenvalues --  -10.46542 -10.46282 -10.43357 -10.42961 -10.41425
 Alpha  occ. eigenvalues --  -10.40529  -1.25400  -1.23492  -1.22734  -1.22270
 Alpha  occ. eigenvalues --   -1.19747  -1.17390  -1.07977  -1.04324  -1.00449
 Alpha  occ. eigenvalues --   -0.95758  -0.90220  -0.89504  -0.88559  -0.82250
 Alpha  occ. eigenvalues --   -0.79641  -0.79405  -0.74622  -0.74449  -0.73850
 Alpha  occ. eigenvalues --   -0.73829  -0.72923  -0.72161  -0.70806  -0.69506
 Alpha  occ. eigenvalues --   -0.68334  -0.67507  -0.65478  -0.64280  -0.63667
 Alpha  occ. eigenvalues --   -0.62442  -0.61627  -0.61394  -0.59179  -0.58382
 Alpha  occ. eigenvalues --   -0.58040  -0.57237  -0.56424  -0.55716  -0.55420
 Alpha  occ. eigenvalues --   -0.53895  -0.53008  -0.52175  -0.52019  -0.51910
 Alpha  occ. eigenvalues --   -0.51496  -0.49816  -0.48976  -0.44315
 Alpha virt. eigenvalues --   -0.13494  -0.10647  -0.06076  -0.05243  -0.04644
 Alpha virt. eigenvalues --   -0.04488  -0.03553  -0.03156  -0.02851  -0.02720
 Alpha virt. eigenvalues --   -0.01779  -0.01311  -0.01005  -0.00807  -0.00481

 Mulliken charges:
               1
     1  C    1.204593
     2  C    0.774136
     3  C    0.575602
     4  N    0.005662
     5  C    0.706456
     6  C    0.384550
     7  C    1.411039
     8  N   -1.234682
     9  C    1.254435
    10  C    0.800064
    11  C    1.016630
    12  O   -0.473786
    13  O   -0.431379
    14  O   -0.439174
    15  H   -0.565920
    16  H   -0.272274
    17  H   -0.279390
    18  H   -0.511390
    19  H   -0.291927
    20  H   -0.561847
    21  H   -0.863019
    22  H   -1.209447
    23  H   -0.616551
    24  H   -0.560035
    25  H   -0.900106
    26  C    0.931175
    27  H    0.092872
    28  H    0.532877
    29  H    0.157531
    30  H    0.263100
    31  H    0.160085
    32  H    0.255276
    33  H    0.230985
    34  O   -0.296865
    35  H    0.141126
    36  H    0.143042
    37  H   -0.213275
    38  H   -0.132166
    39  H   -0.188002
 Sum of Mulliken charges =   1.00000

 Dipole moment (field-independent basis, Debye):
    X=             -1.2929    Y=              1.5217    Z=              0.8409  Tot=              2.1666
 Quadrupole moment (field-independent basis, Debye-Ang):
   XX=            -46.5492   YY=            -56.1991   ZZ=            -83.2497
   XY=              9.8393   XZ=              0.8303   YZ=              2.1267

  Exact polarizability: 170.840 -12.509 180.092   7.661   9.635 137.455
 Approx polarizability: 180.045  -7.591 185.769  14.179  13.258 158.554

                      1                      2                      3
                      A                      A                      A
 Frequencies --     16.0926                21.8391                33.9284
 Red. masses --      4.4800                 4.3184                 4.3335
 Frc consts  --      0.0007                 0.0012                 0.0029
 IR Inten    --      0.8603                 0.3552                 1.2003

                      4                      5                      6
                      A                      A                      A
 Frequencies --     51.5319                57.0572                64.7624
 Red. masses --      4.6545                 4.8523                 4.1620
 Frc consts  --      0.0073                 0.0093                 0.0103
 IR Inten    --      2.7954                 1.5275                 1.5494

                      7                      8                      9
                      A                      A                      A
 Frequencies --     75.1704                84.3855                86.9795
 Red. masses --      3.6879                 1.5227                 1.5142
 Frc consts  --      0.0123                 0.0064                 0.0067
 IR Inten    --      0.3539                10.3411                 6.6701

                     10                     11                     12
                      A                      A                      A
 Frequencies --     97.4046               117.9075               156.0226
 Red. masses --      4.1918                 3.8848                 2.0849
 Frc consts  --      0.0234                 0.0318                 0.0299
 IR Inten    --      5.3446                 3.1195                 0.6386

                     13                     14                     15
                      A                      A                      A
 Frequencies --    164.9310               185.9438               196.2675
 Red. masses --      4.5631                 2.6230                 1.4564
 Frc consts  --      0.0731                 0.0534                 0.0331
 IR Inten    --      5.8322                27.8533               157.2450

                     16                     17                     18
                      A                      A                      A
 Frequencies --    202.8393               230.8783               244.8161
 Red. masses --      3.0640                 1.1817                 1.1507
 Frc consts  --      0.0743                 0.0371                 0.0406
 IR Inten    --      5.8810                88.6875                31.9071

                     19                     20                     21
                      A                      A                      A
 Frequencies --    245.9084               254.6102               262.0624
 Red. masses --      1.3004                 4.7519                 2.9988
 Frc consts  --      0.0463                 0.1815                 0.1213
 IR Inten    --     23.5287                13.2929                26.3573

                     22                     23                     24
                      A                      A                      A
 Frequencies --    268.2170               290.4039               310.6752
 Red. masses --      3.1502                 1.2104                 3.8545
 Frc consts  --      0.1335                 0.0601                 0.2192
 IR Inten    --     11.0697               116.2874                10.6504

                     25                     26                     27
                      A                      A                      A
 Frequencies --    343.4681               398.4371               416.9127
 Red. masses --      5.2137                 2.8421                 3.0890
 Frc consts  --      0.3624                 0.2658                 0.3163
 IR Inten    --     14.8830                 9.9926                 8.9607

                     28                     29                     30
                      A                      A                      A
 Frequencies --    419.2136               527.5567               535.2993
 Red. masses --      2.9669                 1.3288                 1.1424
 Frc consts  --      0.3072                 0.2179                 0.1929
 IR Inten    --      7.4421                25.6579                28.0890

                     31                     32                     33
                      A                      A                      A
 Frequencies --    554.1378               584.3168               619.1142
 Red. masses --      2.2438                 2.8159                 1.1480
 Frc consts  --      0.4059                 0.5665                 0.2593
 IR Inten    --     13.2812                 4.8953                55.8729

                     34                     35                     36
                      A                      A                      A
 Frequencies --    638.1028               648.5415               673.4134
 Red. masses --      3.7551                 3.3082                 5.3398
 Frc consts  --      0.9009                 0.8198                 1.4267
 IR Inten    --     25.7987                 5.8737                 7.2188

                     37                     38                     39
                      A                      A                      A
 Frequencies --    709.7282               733.3394               741.6551
 Red. masses --      1.6148                 1.2444                 1.0583
 Frc consts  --      0.4792                 0.3943                 0.3430
 IR Inten    --     90.6964               123.6187               129.6891

                     40                     41                     42
                      A                      A                      A
 Frequencies --    781.9653               838.1294               839.6209
 Red. masses --      1.4237                 1.8289                 1.8922
 Frc consts  --      0.5129                 0.7569                 0.7859
 IR Inten    --      0.9716                24.5687                13.7788

                     43                     44                     45
                      A                      A                      A
 Frequencies --    868.3853               934.5395               940.2715
 Red. masses --      1.0776                 2.1169                 2.2470
 Frc consts  --      0.4788                 1.0893                 1.1705
 IR Inten    --     24.1483                 3.9310                26.5060

                     46                     47                     48
                      A                      A                      A
 Frequencies --    954.7612               966.2643               981.6537
 Red. masses --      2.3741                 1.1233                 1.5499
 Frc consts  --      1.2751                 0.6179                 0.8800
 IR Inten    --     19.5341               100.5961                 0.5299

                     49                     50                     51
                      A                      A                      A
 Frequencies --    991.4418              1011.4928              1034.2695
 Red. masses --      1.3089                 1.7503                 1.3797
 Frc consts  --      0.7580                 1.0551                 0.8696
 IR Inten    --     31.4225                14.1534                 0.5241

                     52                     53                     54
                      A                      A                      A
 Frequencies --   1044.7355              1054.1384              1075.4665
 Red. masses --      4.1807                 2.3541                 1.8527
 Frc consts  --      2.6885                 1.5412                 1.2626
 IR Inten    --      4.5388                 1.5145                17.2666

                     55                     56                     57
                      A                      A                      A
 Frequencies --   1092.9190              1117.8452              1143.5299
 Red. masses --      2.1716                 2.3270                 1.2852
 Frc consts  --      1.5283                 1.7132                 0.9902
 IR Inten    --      3.9346                 9.6494                 3.5816

                     58                     59                     60
                      A                      A                      A
 Frequencies --   1149.4583              1199.1758              1214.5217
 Red. masses --      1.5113                 1.8448                 1.2931
 Frc consts  --      1.1765                 1.5630                 1.1238
 IR Inten    --      7.7983                16.0077                 8.1025

                     61                     62                     63
                      A                      A                      A
 Frequencies --   1226.1596              1243.1000              1247.0288
 Red. masses --      1.4586                 1.6666                 1.1111
 Frc consts  --      1.2920                 1.5174                 1.0180
 IR Inten    --      5.4398                 6.5688                34.5955

                     64                     65                     66
                      A                      A                      A
 Frequencies --   1258.3451              1264.0066              1292.9363
 Red. masses --      1.8691                 1.7157                 1.4748
 Frc consts  --      1.7437                 1.6150                 1.4525
 IR Inten    --     19.0776                 7.9800                 1.4636

                     67                     68                     69
                      A                      A                      A
 Frequencies --   1298.2141              1328.2486              1329.4775
 Red. masses --      1.4672                 1.7653                 1.5222
 Frc consts  --      1.4569                 1.8350                 1.5852
 IR Inten    --     12.1590                18.9750                 3.3774

                     70                     71                     72
                      A                      A                      A
 Frequencies --   1358.1210              1374.5275              1382.6082
 Red. masses --      1.3523                 1.8801                 1.5384
 Frc consts  --      1.4696                 2.0929                 1.7327
 IR Inten    --      4.7481                14.8585                 4.6745

                     73                     74                     75
                      A                      A                      A
 Frequencies --   1403.2662              1442.3227              1454.0374
 Red. masses --      1.8730                 1.5091                 1.2511
 Frc consts  --      2.1730                 1.8496                 1.5584
 IR Inten    --      2.6935                19.2829                 9.8576

                     76                     77                     78
                      A                      A                      A
 Frequencies --   1483.3725              1484.9889              1489.4411
 Red. masses --      1.0461                 1.0725                 1.0701
 Frc consts  --      1.3562                 1.3934                 1.3987
 IR Inten    --     15.6223                 6.6399                 5.3016

                     79                     80                     81
                      A                      A                      A
 Frequencies --   1506.2220              1517.0928              1526.1841
 Red. masses --      1.0894                 1.7405                 1.2760
 Frc consts  --      1.4561                 2.3602                 1.7511
 IR Inten    --     11.0208                38.4023                 8.7707

                     82                     83                     84
                      A                      A                      A
 Frequencies --   1610.2049              1631.5126              1636.8447
 Red. masses --      1.1903                 1.2015                 1.6440
 Frc consts  --      1.8184                 1.8843                 2.5951
 IR Inten    --    100.6047                53.4020                23.1435

                     85                     86                     87
                      A                      A                      A
 Frequencies --   1661.7842              1688.6029              1706.8195
 Red. masses --      1.0802                 1.2079                 3.5055
 Frc consts  --      1.7575                 2.0293                 6.0169
 IR Inten    --     28.5587                14.5949                11.1259

                     88                     89                     90
                      A                      A                      A
 Frequencies --   1722.7833              2796.0296              2965.8771
 Red. masses --      2.2699                 1.1083                 1.0833
 Frc consts  --      3.9693                 5.1052                 5.6144
 IR Inten    --     34.6257              2111.1624                44.0784

                     91                     92                     93
                      A                      A                      A
 Frequencies --   2995.8817              2998.8448              3088.6021
 Red. masses --      1.0511                 1.0698                 1.0634
 Frc consts  --      5.5584                 5.6685                 5.9770
 IR Inten    --     32.7705                86.4027                14.8732

                     94                     95                     96
                      A                      A                      A
 Frequencies --   3104.3843              3109.9266              3118.9542
 Red. masses --      1.0674                 1.0861                 1.0903
 Frc consts  --      6.0606                 6.1891                 6.2490
 IR Inten    --     15.3913                17.8714                20.9144

                     97                     98                     99
                      A                      A                      A
 Frequencies --   3145.0868              3151.7832              3164.0668
 Red. masses --      1.1047                 1.1041                 1.1058
 Frc consts  --      6.4378                 6.4619                 6.5225
 IR Inten    --      1.7720                12.7543                22.7046

                    100                    101                    102
                      A                      A                      A
 Frequencies --   3209.2599              3223.3579              3246.1097
 Red. masses --      1.0926                 1.0975                 1.0927
 Frc consts  --      6.6304                 6.7187                 6.7840
 IR Inten    --      0.2259                22.3544                 1.2779

                    103                    104                    105
                      A                      A                      A
 Frequencies --   3261.1751              3301.8670              3322.7938
 Red. masses --      1.1007                 1.0661                 1.0667
 Frc consts  --      6.8970                 6.8480                 6.9393
 IR Inten    --      2.3663              1225.8640               977.0992

                    106                    107                    108
                      A                      A                      A
 Frequencies --   3646.8407              3708.4677              3878.2180
 Red. masses --      1.0462                 1.0856                 1.0453
 Frc consts  --      8.1978                 8.7967                 9.2633
 IR Inten    --    166.9674              1057.1079                19.0401

                    109                    110                    111
                      A                      A                      A
 Frequencies --   3946.8243              3949.1604              3984.0257
 Red. masses --      1.0675                 1.0673                 1.0827
 Frc consts  --      9.7971                 9.8070                10.1254
 IR Inten    --     92.7516               114.1735               105.0570

 - Thermochemistry -
 -------------------
 Temperature   130.000 Kelvin.  Pressure   1.00000 Atm.
 Atom     1 has atomic number  6 and mass  12.00000

 Molecular mass:   235.16578 amu.
 Principal axes and moments of inertia in atomic units:
                           1         2         3
     Eigenvalues --  3960.940325485.526437841.83719
           X            0.99999  -0.00505  -0.00077
           Y            0.00504   0.99998  -0.00222
           Z            0.00078   0.00221   1.00000
 This molecule is an asymmetric top.
 Rotational symmetry number  1.
 Warning -- assumption of classical behavior for rotation
           may cause significant error
 Rotational temperatures (Kelvin)      0.02187     0.01579     0.01105
 Rotational constants (GHZ):           0.45563     0.32900     0.23014
 Zero-point vibrational energy     899497.6 (Joules/Mol)
                                  214.98508 (Kcal/Mol)
 Warning -- explicit consideration of  22 degrees of freedom as
           vibrations may cause significant error
 Vibrational temperatures:     23.15    31.42    48.82    74.14    82.09
          (Kelvin)             93.18   108.15   121.41   125.14   140.14
                              169.64   224.48   237.30   267.53   282.39
                              291.84   332.18   352.24   353.81   366.33
                              377.05   385.90   417.83   446.99   494.17
                              573.26   599.84   603.15   759.04   770.18
                              797.28   840.70   890.77   918.09   933.11
                              968.89  1021.14  1055.11  1067.08  1125.07
                             1205.88  1208.03  1249.41  1344.59  1352.84
                             1373.69  1390.24  1412.38  1426.46  1455.31
                             1488.08  1503.14  1516.67  1547.36  1572.47
                             1608.33  1645.28  1653.81  1725.35  1747.43
                             1764.17  1788.54  1794.20  1810.48  1818.62
                             1860.25  1867.84  1911.05  1912.82  1954.03
                             1977.64  1989.26  2018.99  2075.18  2092.04
                             2134.24  2136.57  2142.97  2167.12  2182.76
                             2195.84  2316.73  2347.38  2355.05  2390.94
                             2429.52  2455.73  2478.70  4022.86  4267.24
                             4310.41  4314.67  4443.81  4466.52  4474.49
                             4487.48  4525.08  4534.71  4552.39  4617.41
                             4637.69  4670.43  4692.10  4750.65  4780.76
                             5246.99  5335.66  5579.89  5678.60  5681.96
                             5732.12

 Zero-point correction=                           0.342601 (Hartree/Particle)
 Thermal correction to Energy=                    0.348323
 Thermal correction to Enthalpy=                  0.348735
 Thermal correction to Gibbs Free Energy=         0.325665
 Sum of electronic and zero-point Energies=           -804.689914
 Sum of electronic and thermal Energies=              -804.684192
 Sum of electronic and thermal Enthalpies=            -804.683780
 Sum of electronic and thermal Free Energies=         -804.706850

                     E (Thermal)             CV                S
                      KCal/Mol        Cal/Mol-Kelvin    Cal/Mol-Kelvin
 Total                  218.576             45.381            111.360
 Electronic               0.000              0.000              0.000
 Translational            0.388              2.981             38.143
 Rotational               0.388              2.981             31.025
 Vibrational            217.801             39.420             42.193
 Vibration     1          0.259              1.982              5.419
 Vibration     2          0.260              1.978              4.814
 Vibration     3          0.261              1.964              3.945
 Vibration     4          0.265              1.934              3.130
 Vibration     5          0.267              1.922              2.933
 Vibration     6          0.269              1.904              2.691
 Vibration     7          0.273              1.876              2.409
 Vibration     8          0.277              1.849              2.194
 Vibration     9          0.278              1.841              2.138
 Vibration    10          0.283              1.805              1.931
 Vibration    11          0.294              1.728              1.594
 Vibration    12          0.320              1.559              1.132
 Vibration    13          0.326              1.516              1.046
 Vibration    14          0.344              1.413              0.870
 Vibration    15          0.353              1.361              0.795
 Vibration    16          0.359              1.327              0.751
 Vibration    17          0.386              1.185              0.588
 Vibration    18          0.400              1.115              0.521
 Vibration    19          0.401              1.109              0.516
 Vibration    20          0.410              1.066              0.478
 Vibration    21          0.418              1.030              0.448
 Vibration    22          0.425              1.000              0.424

                           ! Non-Optimized Parameters !
 Normal termination of Gaussian 16 at Mon Jul 12 16:05:00 2021.
