 Gaussian 16, Revision A.03,
 Gaussian 16:  ES64L-G16RevA.03 25-Dec-2016

 ----------------------------------------------------------------
 # wB97XD/aug-cc-pVDZ opt=(TS,CalcAll,MaxStep=1,NoEigenTest) freq
 ----------------------------------------------------------------

 ----
 blah
 ----
 Symbolic Z-matrix:
 Charge =  1 Multiplicity = 1

 SCF Done:  E(RwB97XD) =  -805.019852175     A.U. after   16 cycles
 SCF Done:  E(RwB97XD) =  -805.019857159     A.U. after   10 cycles
 SCF Done:  E(RwB97XD) =  -805.019860846     A.U. after   10 cycles
 SCF Done:  E(RwB97XD) =  -805.019863249     A.U. after   10 cycles
 SCF Done:  E(RwB97XD) =  -805.019863693     A.U. after   10 cycles
 Optimization completed.
    -- Stationary point found.
 ******    1 imaginary frequencies (negative Signs) ******
    1 imaginary frequencies ignored.
 Normal termination of Gaussian 16 at Fri Nov 18 00:17:56 2022.

 ----------------------------------------------------------------------
 #N Geom=AllCheck Guess=TCheck SCRF=Check GenChk RwB97XD/Aug-CC-pVDZ Fr
 eq
 ----------------------------------------------------------------------

 Structure from the checkpoint file:  "/gscratch/scrubbed/gds001/Gau-26847.chk"
 ----
 blah
 ----
 Charge =  1 Multiplicity = 1

                         Standard orientation:
 ---------------------------------------------------------------------
 Center     Atomic      Atomic             Coordinates (Angstroms)
 Number     Number       Type             X           Y           Z
 ---------------------------------------------------------------------
      1          7           0       -1.283544    2.023644   -0.557464
      2          6           0       -1.174435    3.135330    0.178390
      3          6           0       -0.036329    3.431368    0.920797
      4          6           0        1.020434    2.525275    0.908811
      5          6           0        0.923364    1.363476    0.142849
      6          6           0       -0.254349    1.173668   -0.581125
      7          6           0        2.043168    0.353817    0.101684
      8          6           0        2.644039    0.059241   -1.279945
      9          6           0        3.244299   -1.360983   -1.147073
     10          6           0        2.805483   -1.844068    0.244299
     11          7           0        1.637845   -0.997397    0.576831
     12          6           0        1.269057   -1.044158    1.994179
     13          1           0       -2.031831    3.808486    0.171753
     14          1           0        0.014635    4.349407    1.502928
     15          1           0        1.919577    2.724064    1.493564
     16          1           0       -0.383435    0.289683   -1.206714
     17          1           0        2.843716    0.706232    0.774723
     18          1           0        3.386357    0.816542   -1.550048
     19          1           0        1.858112    0.082881   -2.043491
     20          1           0        4.335533   -1.358467   -1.229239
     21          1           0        2.860561   -2.019888   -1.933464
     22          1           0        3.595232   -1.679510    0.993258
     23          1           0        2.517653   -2.901285    0.282849
     24          1           0        2.098129   -0.695634    2.628333
     25          1           0        1.018262   -2.075114    2.266744
     26          1           0        0.391663   -0.410846    2.165547
     27          8           0       -3.347418    0.560149   -1.516638
     28          8           0       -0.222828   -2.046942   -0.721508
     29          8           0       -2.607924   -1.751676   -0.706556
     30          1           0       -3.675914    0.762813   -2.395548
     31          1           0        0.059842   -2.859765   -1.145870
     32          1           0       -3.060783   -1.925801    0.152729
     33          1           0       -2.688675    1.258279   -1.263270
     34          1           0       -2.909512   -0.861201   -1.075983
     35          1           0       -1.493785   -1.887347   -0.679007
     36          1           0        0.617813   -1.534606   -0.131485
     37          8           0       -3.821958   -2.241249    1.622600
     38          1           0       -4.424507   -1.594765    2.002224
     39          1           0       -4.236103   -3.097934    1.763519
 ---------------------------------------------------------------------

 SCF Done:  E(RwB97XD) =  -805.019863693     A.U. after    1 cycles

 The electronic state is 1-A.
 Alpha  occ. eigenvalues --  -19.42279 -19.42208 -19.38707 -19.38689 -14.61272
 Alpha  occ. eigenvalues --  -14.58247 -10.46557 -10.45831 -10.45670 -10.45044
 Alpha  occ. eigenvalues --  -10.44590 -10.44111 -10.44005 -10.42835 -10.41671
 Alpha  occ. eigenvalues --  -10.41499  -1.28479  -1.26286  -1.23044  -1.22340
 Alpha  occ. eigenvalues --   -1.19134  -1.17655  -1.04499  -1.01717  -1.00009
 Alpha  occ. eigenvalues --   -0.94717  -0.90676  -0.86177  -0.84824  -0.81660
 Alpha  occ. eigenvalues --   -0.80542  -0.78512  -0.78209  -0.76783  -0.76384
 Alpha  occ. eigenvalues --   -0.74100  -0.72396  -0.71726  -0.70447  -0.69568
 Alpha  occ. eigenvalues --   -0.66837  -0.65655  -0.65072  -0.64436  -0.62882
 Alpha  occ. eigenvalues --   -0.61859  -0.61715  -0.61023  -0.60196  -0.59730
 Alpha  occ. eigenvalues --   -0.58522  -0.58014  -0.56937  -0.56603  -0.55352
 Alpha  occ. eigenvalues --   -0.55198  -0.54883  -0.53127  -0.52871  -0.52546
 Alpha  occ. eigenvalues --   -0.49073  -0.48142  -0.47430  -0.45843
 Alpha virt. eigenvalues --   -0.08926  -0.07742  -0.06775  -0.05348  -0.04924
 Alpha virt. eigenvalues --   -0.04506  -0.03589  -0.03067  -0.02784  -0.02462
 Alpha virt. eigenvalues --   -0.02167  -0.01474  -0.01019  -0.00848  -0.00395

 Mulliken charges:
               1
     1  N   -0.560496
     2  C    0.253077
     3  C    0.544561
     4  C    1.224697
     5  C    0.725316
     6  C    0.993571
     7  C    1.381000
     8  C    1.043315
     9  C    0.790892
    10  C    1.302013
    11  N   -1.859670
    12  C    0.997950
    13  H   -0.596158
    14  H   -0.599312
    15  H   -0.915149
    16  H   -1.262648
    17  H   -0.823845
    18  H   -0.531664
    19  H   -0.280252
    20  H   -0.247367
    21  H   -0.271074
    22  H   -0.522479
    23  H   -0.575795
    24  H   -0.174733
    25  H   -0.197188
    26  H   -0.103003
    27  O   -0.459436
    28  O   -0.743291
    29  O   -0.451274
    30  H    0.152301
    31  H    0.129582
    32  H    0.328113
    33  H    0.332843
    34  H    0.405248
    35  H    0.633093
    36  H    0.939506
    37  O   -0.326354
    38  H    0.161366
    39  H    0.162741
 Sum of Mulliken charges =   1.00000

 Dipole moment (field-independent basis, Debye):
    X=             -1.6854    Y=             -2.2804    Z=              2.0801  Tot=              3.5168
 Quadrupole moment (field-independent basis, Debye-Ang):
   XX=            -47.8275   YY=            -64.2909   ZZ=            -81.9873
   XY=              5.6098   XZ=             -4.4694   YZ=             -1.1635

  Exact polarizability: 174.893 -15.245 172.747   6.468  11.308 139.528
 Approx polarizability: 184.147  -9.744 182.390  11.863  15.723 160.558

 ******    1 imaginary frequencies (negative Signs) ******

                      1                      2                      3
                      A                      A                      A
 Frequencies --   -874.5181                13.7248                25.9061
 Red. masses --      1.1032                 4.9558                 4.4221
 Frc consts  --      0.4971                 0.0006                 0.0017
 IR Inten    --   4972.3989                 1.0689                 1.5514

                      4                      5                      6
                      A                      A                      A
 Frequencies --     49.8168                55.7120                63.6769
 Red. masses --      3.8343                 4.4150                 3.6216
 Frc consts  --      0.0056                 0.0081                 0.0087
 IR Inten    --      2.4816                 1.4682                 0.7881

                      7                      8                      9
                      A                      A                      A
 Frequencies --     76.9088                84.1118                89.7832
 Red. masses --      2.3459                 5.0392                 1.7385
 Frc consts  --      0.0082                 0.0210                 0.0083
 IR Inten    --      0.0908                 2.2252                 5.6467

                     10                     11                     12
                      A                      A                      A
 Frequencies --    107.3829               109.2050               129.3131
 Red. masses --      2.8594                 2.2357                 4.1377
 Frc consts  --      0.0194                 0.0157                 0.0408
 IR Inten    --     11.1870                15.3905                 0.9648

                     13                     14                     15
                      A                      A                      A
 Frequencies --    169.8494               183.7362               203.7811
 Red. masses --      1.5000                 1.5634                 4.2577
 Frc consts  --      0.0255                 0.0311                 0.1042
 IR Inten    --     25.0675                48.0415                35.3666

                     16                     17                     18
                      A                      A                      A
 Frequencies --    218.5968               237.5693               241.1414
 Red. masses --      3.2031                 1.3789                 2.5034
 Frc consts  --      0.0902                 0.0459                 0.0858
 IR Inten    --      5.8048                 8.8528                12.4528

                     19                     20                     21
                      A                      A                      A
 Frequencies --    262.3027               285.5272               294.4470
 Red. masses --      2.8522                 1.1281                 1.4992
 Frc consts  --      0.1156                 0.0542                 0.0766
 IR Inten    --      2.9754                97.7878                75.1722

                     22                     23                     24
                      A                      A                      A
 Frequencies --    311.5483               324.5256               338.7274
 Red. masses --      2.4816                 3.8350                 1.4003
 Frc consts  --      0.1419                 0.2380                 0.0947
 IR Inten    --    178.0711                26.3437                76.7566

                     25                     26                     27
                      A                      A                      A
 Frequencies --    366.0786               401.6191               419.2472
 Red. masses --      2.6083                 2.9672                 3.0709
 Frc consts  --      0.2059                 0.2820                 0.3180
 IR Inten    --     50.6356                 0.8688                 4.9782

                     28                     29                     30
                      A                      A                      A
 Frequencies --    526.5724               546.8825               567.4861
 Red. masses --      2.4545                 1.9369                 2.1475
 Frc consts  --      0.4010                 0.3413                 0.4075
 IR Inten    --     50.0818                18.3406                37.8386

                     31                     32                     33
                      A                      A                      A
 Frequencies --    574.6577               594.7356               640.5644
 Red. masses --      2.8611                 3.3586                 3.0627
 Frc consts  --      0.5567                 0.6999                 0.7404
 IR Inten    --    159.6050                92.3975                 0.7341

                     34                     35                     36
                      A                      A                      A
 Frequencies --    656.0459               683.5601               740.9760
 Red. masses --      5.8590                 5.6929                 1.9397
 Frc consts  --      1.4857                 1.5672                 0.6275
 IR Inten    --     40.7104                 2.1523                45.3509

                     37                     38                     39
                      A                      A                      A
 Frequencies --    787.8647               791.6140               810.7216
 Red. masses --      1.2092                 1.0463                 1.2558
 Frc consts  --      0.4422                 0.3863                 0.4863
 IR Inten    --     76.0496                 3.6740               316.0799

                     40                     41                     42
                      A                      A                      A
 Frequencies --    835.3074               837.4718               846.7964
 Red. masses --      1.8403                 1.5333                 1.2832
 Frc consts  --      0.7565                 0.6336                 0.5421
 IR Inten    --     44.5343                46.9985                25.0287

                     43                     44                     45
                      A                      A                      A
 Frequencies --    901.5046               934.2637               940.3949
 Red. masses --      1.1184                 2.0799                 2.4367
 Frc consts  --      0.5355                 1.0696                 1.2696
 IR Inten    --     47.9113                43.9648                 4.3966

                     46                     47                     48
                      A                      A                      A
 Frequencies --    962.3213               980.3269               988.9343
 Red. masses --      2.1485                 1.3377                 1.5722
 Frc consts  --      1.1723                 0.7575                 0.9059
 IR Inten    --     52.1185                 7.2737                 4.2070

                     49                     50                     51
                      A                      A                      A
 Frequencies --   1008.6902              1028.6470              1053.1110
 Red. masses --      1.7867                 1.4204                 2.4172
 Frc consts  --      1.0711                 0.8855                 1.5795
 IR Inten    --      7.2492                 1.3903                 0.9596

                     52                     53                     54
                      A                      A                      A
 Frequencies --   1054.0202              1066.5691              1083.7327
 Red. masses --      4.3320                 2.0763                 1.4130
 Frc consts  --      2.8356                 1.3916                 0.9778
 IR Inten    --     22.3367                21.2953               121.5855

                     55                     56                     57
                      A                      A                      A
 Frequencies --   1104.5826              1117.8855              1141.8110
 Red. masses --      1.3955                 2.2895                 1.3378
 Frc consts  --      1.0032                 1.6857                 1.0276
 IR Inten    --     41.2545                 8.4745                 6.3061

                     58                     59                     60
                      A                      A                      A
 Frequencies --   1153.9861              1177.5927              1221.2314
 Red. masses --      1.4324                 2.3684                 1.5918
 Frc consts  --      1.1238                 1.9351                 1.3987
 IR Inten    --      8.4000                16.0058                 2.5205

                     61                     62                     63
                      A                      A                      A
 Frequencies --   1234.0348              1237.7878              1249.8626
 Red. masses --      1.5175                 1.9747                 1.3214
 Frc consts  --      1.3615                 1.7825                 1.2162
 IR Inten    --      3.4047                 6.2534                 6.0065

                     64                     65                     66
                      A                      A                      A
 Frequencies --   1267.2016              1292.4705              1296.0918
 Red. masses --      1.5216                 1.3871                 1.4589
 Frc consts  --      1.4396                 1.3652                 1.4439
 IR Inten    --      3.3864                11.0628                 3.1269

                     67                     68                     69
                      A                      A                      A
 Frequencies --   1316.7260              1331.5783              1365.0041
 Red. masses --      3.8755                 1.4127                 1.2719
 Frc consts  --      3.9588                 1.4758                 1.3963
 IR Inten    --      0.7642                 6.2984               139.2606

                     70                     71                     72
                      A                      A                      A
 Frequencies --   1373.0116              1379.5911              1391.0097
 Red. masses --      1.3644                 1.2900                 1.1759
 Frc consts  --      1.5154                 1.4466                 1.3405
 IR Inten    --      7.7461                 5.5135               379.8102

                     73                     74                     75
                      A                      A                      A
 Frequencies --   1406.5373              1429.9708              1450.7478
 Red. masses --      1.5354                 1.2779                 1.1783
 Frc consts  --      1.7897                 1.5396                 1.4612
 IR Inten    --     20.9338                95.5373                 7.6419

                     76                     77                     78
                      A                      A                      A
 Frequencies --   1482.9402              1484.8853              1488.1198
 Red. masses --      1.7951                 1.1152                 1.1192
 Frc consts  --      2.3258                 1.4488                 1.4602
 IR Inten    --     18.7872                24.6762                15.9292

                     79                     80                     81
                      A                      A                      A
 Frequencies --   1489.7153              1506.1189              1509.1077
 Red. masses --      1.0618                 1.1279                 1.1067
 Frc consts  --      1.3883                 1.5074                 1.4850
 IR Inten    --     29.2412               107.7870               107.7698

                     82                     83                     84
                      A                      A                      A
 Frequencies --   1531.2307              1554.3052              1619.7231
 Red. masses --      1.9477                 1.2333                 1.0689
 Frc consts  --      2.6906                 1.7554                 1.6522
 IR Inten    --     25.6730               200.3944                95.4769

                     85                     86                     87
                      A                      A                      A
 Frequencies --   1637.6409              1650.6216              1665.8246
 Red. masses --      1.0859                 1.1472                 4.2836
 Frc consts  --      1.7159                 1.8416                 7.0036
 IR Inten    --    127.1283                56.8460                 7.8282

                     88                     89                     90
                      A                      A                      A
 Frequencies --   1688.2333              1740.9954              1793.9636
 Red. masses --      5.6654                 1.0656                 1.0843
 Frc consts  --      9.5136                 1.9030                 2.0561
 IR Inten    --     15.8149                 3.1485               719.3230

                     91                     92                     93
                      A                      A                      A
 Frequencies --   2957.0063              3021.6839              3039.5626
 Red. masses --      1.0767                 1.0849                 1.0401
 Frc consts  --      5.5471                 5.8363                 5.6615
 IR Inten    --   1623.9770                13.2688                13.2207

                     94                     95                     96
                      A                      A                      A
 Frequencies --   3053.0901              3097.8818              3107.5858
 Red. masses --      1.0664                 1.0629                 1.0653
 Frc consts  --      5.8565                 6.0099                 6.0616
 IR Inten    --     24.6619                13.7319                15.0201

                     97                     98                     99
                      A                      A                      A
 Frequencies --   3129.6595              3133.6322              3150.9098
 Red. masses --      1.0992                 1.0979                 1.1057
 Frc consts  --      6.3432                 6.3518                 6.4678
 IR Inten    --     14.0613                12.7501                 0.4606

                    100                    101                    102
                      A                      A                      A
 Frequencies --   3164.1891              3167.0822              3201.9194
 Red. masses --      1.1053                 1.1057                 1.0912
 Frc consts  --      6.5202                 6.5345                 6.5911
 IR Inten    --      9.0617                19.0778                 7.6924

                    103                    104                    105
                      A                      A                      A
 Frequencies --   3203.3750              3208.4382              3239.0164
 Red. masses --      1.0914                 1.0927                 1.0980
 Frc consts  --      6.5983                 6.6271                 6.7870
 IR Inten    --      6.9754                 9.7214                12.2418

                    106                    107                    108
                      A                      A                      A
 Frequencies --   3269.7858              3404.1737              3866.4771
 Red. masses --      1.0679                 1.0676                 1.0453
 Frc consts  --      6.7272                 7.2891                 9.2070
 IR Inten    --   1515.3772              1060.7651                34.6506

                    109                    110                    111
                      A                      A                      A
 Frequencies --   3936.0310              3940.6672              3967.9917
 Red. masses --      1.0663                 1.0670                 1.0827
 Frc consts  --      9.7326                 9.7623                10.0440
 IR Inten    --     70.9305               133.9583               119.8158

 - Thermochemistry -
 -------------------
 Temperature   298.150 Kelvin.  Pressure   1.00000 Atm.
 Atom     1 has atomic number  7 and mass  14.00307

 Molecular mass:   235.16578 amu.
 Principal axes and moments of inertia in atomic units:
                           1         2         3
     Eigenvalues --  3890.451425096.008537079.27141
           X            0.99997  -0.00682  -0.00258
           Y            0.00682   0.99997  -0.00189
           Z            0.00260   0.00187   0.99999
 This molecule is an asymmetric top.
 Rotational symmetry number  1.
 Warning -- assumption of classical behavior for rotation
           may cause significant error
 Rotational temperatures (Kelvin)      0.02226     0.01700     0.01223
 Rotational constants (GHZ):           0.46389     0.35415     0.25493
    1 imaginary frequencies ignored.
 Zero-point vibrational energy     882546.8 (Joules/Mol)
                                  210.93376 (Kcal/Mol)
 Warning -- explicit consideration of  31 degrees of freedom as
           vibrations may cause significant error
 Vibrational temperatures:     19.75    37.27    71.68    80.16    91.62
          (Kelvin)            110.65   121.02   129.18   154.50   157.12
                              186.05   244.38   264.36   293.20   314.51
                              341.81   346.95   377.40   410.81   423.64
                              448.25   466.92   487.35   526.71   577.84
                              603.20   757.62   786.84   816.49   826.80
                              855.69   921.63   943.90   983.49  1066.10
                             1133.56  1138.96  1166.45  1201.82  1204.94
                             1218.35  1297.06  1344.20  1353.02  1384.57
                             1410.47  1422.86  1451.28  1479.99  1515.19
                             1516.50  1534.56  1559.25  1589.25  1608.39
                             1642.81  1660.33  1694.29  1757.08  1775.50
                             1780.90  1798.27  1823.22  1859.58  1864.79
                             1894.48  1915.84  1963.94  1975.46  1984.92
                             2001.35  2023.69  2057.41  2087.30  2133.62
                             2136.42  2141.07  2143.37  2166.97  2171.27
                             2203.10  2236.30  2330.42  2356.20  2374.88
                             2396.75  2428.99  2504.90  2581.11  4254.47
                             4347.53  4373.25  4392.72  4457.16  4471.12
                             4502.88  4508.60  4533.46  4552.56  4556.72
                             4606.85  4608.94  4616.23  4660.22  4704.49
                             4897.85  5563.00  5663.07  5669.74  5709.06

 Zero-point correction=                           0.336144 (Hartree/Particle)
 Thermal correction to Energy=                    0.357015
 Thermal correction to Enthalpy=                  0.357959
 Thermal correction to Gibbs Free Energy=         0.284457
 Sum of electronic and zero-point Energies=           -804.683719
 Sum of electronic and thermal Energies=              -804.662849
 Sum of electronic and thermal Enthalpies=            -804.661904
 Sum of electronic and thermal Free Energies=         -804.735406

                     E (Thermal)             CV                S
                      KCal/Mol        Cal/Mol-Kelvin    Cal/Mol-Kelvin
 Total                  224.030             74.612            154.698
 Electronic               0.000              0.000              0.000
 Translational            0.889              2.981             42.267
 Rotational               0.889              2.981             33.306
 Vibrational            222.253             68.651             79.125
 Vibration     1          0.593              1.986              7.382
 Vibration     2          0.593              1.985              6.121
 Vibration     3          0.595              1.978              4.825
 Vibration     4          0.596              1.975              4.604
 Vibration     5          0.597              1.972              4.340
 Vibration     6          0.599              1.965              3.968
 Vibration     7          0.601              1.960              3.793
 Vibration     8          0.602              1.956              3.665
 Vibration     9          0.606              1.943              3.316
 Vibration    10          0.606              1.942              3.283
 Vibration    11          0.612              1.924              2.956
 Vibration    12          0.625              1.880              2.437
 Vibration    13          0.631              1.862              2.290
 Vibration    14          0.639              1.835              2.099
 Vibration    15          0.646              1.813              1.971
 Vibration    16          0.656              1.783              1.821
 Vibration    17          0.658              1.777              1.794
 Vibration    18          0.670              1.742              1.646
 Vibration    19          0.683              1.701              1.500
 Vibration    20          0.689              1.684              1.448
 Vibration    21          0.700              1.652              1.354
 Vibration    22          0.709              1.626              1.287
 Vibration    23          0.719              1.598              1.218
 Vibration    24          0.739              1.542              1.096
 Vibration    25          0.767              1.467              0.957
 Vibration    26          0.782              1.428              0.895
 Vibration    27          0.882              1.191              0.595
 Vibration    28          0.902              1.147              0.551
 Vibration    29          0.923              1.102              0.509
 Vibration    30          0.931              1.086              0.495
 Vibration    31          0.952              1.043              0.459

 Optimization completed.
    -- Stationary point found.
 Normal termination of Gaussian 16 at Fri Nov 18 01:26:59 2022.
