 Gaussian 16, Revision A.03,
 Gaussian 16:  ES64L-G16RevA.03 25-Dec-2016

 ----------------------------------------------------------------
 # wB97XD/aug-cc-pVDZ opt=(TS,CalcAll,MaxStep=5,NoEigenTest) freq
 ----------------------------------------------------------------

 ----
 blah
 ----
 Symbolic Z-matrix:
 Charge =  1 Multiplicity = 1

 SCF Done:  E(RwB97XD) =  -805.018073171     A.U. after   16 cycles
 SCF Done:  E(RwB97XD) =  -805.018077200     A.U. after   11 cycles
 SCF Done:  E(RwB97XD) =  -805.018719830     A.U. after   11 cycles
 SCF Done:  E(RwB97XD) =  -805.018714647     A.U. after   11 cycles
 SCF Done:  E(RwB97XD) =  -805.018734811     A.U. after   11 cycles
 SCF Done:  E(RwB97XD) =  -805.018794814     A.U. after   11 cycles
 SCF Done:  E(RwB97XD) =  -805.018917115     A.U. after   11 cycles
 SCF Done:  E(RwB97XD) =  -805.019152973     A.U. after   11 cycles
 SCF Done:  E(RwB97XD) =  -805.019563812     A.U. after   11 cycles
 SCF Done:  E(RwB97XD) =  -805.019956199     A.U. after   11 cycles
 SCF Done:  E(RwB97XD) =  -805.020254604     A.U. after   12 cycles
 SCF Done:  E(RwB97XD) =  -805.020474487     A.U. after   12 cycles
 SCF Done:  E(RwB97XD) =  -805.020619413     A.U. after   12 cycles
 SCF Done:  E(RwB97XD) =  -805.020686005     A.U. after   12 cycles
 SCF Done:  E(RwB97XD) =  -805.020702107     A.U. after   12 cycles
 SCF Done:  E(RwB97XD) =  -805.020702863     A.U. after   10 cycles
 SCF Done:  E(RwB97XD) =  -805.020702831     A.U. after    8 cycles
 Optimization completed.
    -- Stationary point found.
 ******    1 imaginary frequencies (negative Signs) ******
    1 imaginary frequencies ignored.
 Normal termination of Gaussian 16 at Sun Feb 26 11:54:35 2023.

 ----------------------------------------------------------------------
 #N Geom=AllCheck Guess=TCheck SCRF=Check GenChk RwB97XD/Aug-CC-pVDZ Fr
 eq
 ----------------------------------------------------------------------

 Structure from the checkpoint file:  "/gscratch/scrubbed/gds001/Gau-5819.chk"
 ----
 blah
 ----
 Charge =  1 Multiplicity = 1

                         Standard orientation:
 ---------------------------------------------------------------------
 Center     Atomic      Atomic             Coordinates (Angstroms)
 Number     Number       Type             X           Y           Z
 ---------------------------------------------------------------------
      1          7           0       -0.914100    2.113603   -0.413015
      2          6           0       -0.589624    3.263117    0.193033
      3          6           0        0.653575    3.452460    0.780060
      4          6           0        1.574199    2.406336    0.750415
      5          6           0        1.244922    1.206604    0.120500
      6          6           0       -0.019623    1.122134   -0.458346
      7          6           0        2.200346    0.039755    0.064490
      8          6           0        2.644116   -0.378221   -1.349067
      9          6           0        2.940125   -1.892426   -1.228496
     10          6           0        2.591385   -2.235426    0.225520
     11          7           0        1.623389   -1.199472    0.617728
     12          6           0        1.396868   -1.144936    2.057854
     13          1           0       -1.352807    4.040343    0.205225
     14          1           0        0.890347    4.398466    1.262586
     15          1           0        2.550533    2.524574    1.221740
     16          1           0       -0.338093    0.217597   -0.976681
     17          1           0        3.095959    0.308793    0.657311
     18          1           0        3.512376    0.204745   -1.673095
     19          1           0        1.838810   -0.192181   -2.069452
     20          1           0        3.984502   -2.131838   -1.451916
     21          1           0        2.317430   -2.463175   -1.926628
     22          1           0        3.488146   -2.177553    0.868613
     23          1           0        2.153294   -3.233000    0.355310
     24          1           0        2.329460   -0.930710    2.609865
     25          1           0        1.000761   -2.107514    2.401742
     26          1           0        0.660653   -0.366569    2.292150
     27          8           0       -3.150993    1.251747   -1.202098
     28          8           0       -0.687077   -2.080096   -0.568291
     29          8           0       -3.106126   -1.085338   -0.684157
     30          1           0       -3.368655    1.442836   -2.119515
     31          1           0       -0.526687   -2.976466   -0.870239
     32          1           0       -3.695668   -1.381419    0.045961
     33          1           0       -2.229440    1.723201   -0.918898
     34          1           0       -3.139096    0.089988   -0.954485
     35          1           0       -2.201744   -1.485687   -0.582625
     36          1           0        0.147552   -1.754466   -0.121848
     37          8           0       -4.734266   -1.971975    1.246283
     38          1           0       -5.062117   -1.476415    2.001524
     39          1           0       -5.410590   -2.623550    1.040689
 ---------------------------------------------------------------------

 SCF Done:  E(RwB97XD) =  -805.020702831     A.U. after    1 cycles

 The electronic state is 1-A.
 Alpha  occ. eigenvalues --  -19.42104 -19.41711 -19.41501 -19.38955 -14.60288
 Alpha  occ. eigenvalues --  -14.57714 -10.46857 -10.46814 -10.45193 -10.44660
 Alpha  occ. eigenvalues --  -10.44343 -10.43648 -10.43103 -10.42721 -10.40667
 Alpha  occ. eigenvalues --  -10.40168  -1.28474  -1.26197  -1.25051  -1.22908
 Alpha  occ. eigenvalues --   -1.19457  -1.16779  -1.04779  -1.01101  -0.99712
 Alpha  occ. eigenvalues --   -0.94035  -0.88864  -0.86506  -0.85534  -0.79800
 Alpha  occ. eigenvalues --   -0.79182  -0.79050  -0.77990  -0.77840  -0.76445
 Alpha  occ. eigenvalues --   -0.74978  -0.72957  -0.71563  -0.70104  -0.68814
 Alpha  occ. eigenvalues --   -0.66117  -0.65581  -0.65168  -0.63728  -0.63023
 Alpha  occ. eigenvalues --   -0.62643  -0.61748  -0.60961  -0.59996  -0.59242
 Alpha  occ. eigenvalues --   -0.58162  -0.57178  -0.56395  -0.55457  -0.55293
 Alpha  occ. eigenvalues --   -0.54747  -0.54723  -0.53429  -0.52691  -0.51772
 Alpha  occ. eigenvalues --   -0.49964  -0.49845  -0.46431  -0.44231
 Alpha virt. eigenvalues --   -0.09958  -0.08253  -0.06697  -0.05103  -0.04830
 Alpha virt. eigenvalues --   -0.04614  -0.03487  -0.03043  -0.02700  -0.02499
 Alpha virt. eigenvalues --   -0.01753  -0.01260  -0.01015  -0.00726  -0.00181

 Mulliken charges:
               1
     1  N   -0.708863
     2  C    0.449778
     3  C    0.434143
     4  C    1.286286
     5  C    0.454000
     6  C    1.201179
     7  C    1.294145
     8  C    1.084936
     9  C    0.795199
    10  C    1.305769
    11  N   -1.247146
    12  C    0.946260
    13  H   -0.633373
    14  H   -0.586926
    15  H   -0.903101
    16  H   -1.363235
    17  H   -0.829286
    18  H   -0.525752
    19  H   -0.295286
    20  H   -0.276808
    21  H   -0.305134
    22  H   -0.540411
    23  H   -0.591691
    24  H   -0.181826
    25  H   -0.230606
    26  H   -0.164610
    27  O   -0.538507
    28  O   -0.497711
    29  O   -0.463346
    30  H    0.161028
    31  H    0.139998
    32  H    0.296829
    33  H    0.498979
    34  H    0.589932
    35  H    0.375465
    36  H    0.589504
    37  O   -0.325677
    38  H    0.153536
    39  H    0.152334
 Sum of Mulliken charges =   1.00000

 Dipole moment (field-independent basis, Debye):
    X=             -4.1374    Y=             -0.3445    Z=              0.9934  Tot=              4.2689
 Quadrupole moment (field-independent basis, Debye-Ang):
   XX=            -38.9176   YY=            -62.8672   ZZ=            -84.6680
   XY=              7.7270   XZ=             -2.7488   YZ=             -0.8261

  Exact polarizability: 173.437 -11.216 181.580   7.259   9.346 136.171
 Approx polarizability: 184.392  -5.693 188.644  12.520  12.998 155.583

 ******    1 imaginary frequencies (negative Signs) ******

                      1                      2                      3
                      A                      A                      A
 Frequencies --   -498.8111                15.8051                29.4795
 Red. masses --      1.3037                 4.6992                 4.5024
 Frc consts  --      0.1911                 0.0007                 0.0023
 IR Inten    --   2355.9795                 0.9124                 0.7291

                      4                      5                      6
                      A                      A                      A
 Frequencies --     46.1602                57.5047                63.6996
 Red. masses --      3.8287                 3.1711                 3.6336
 Frc consts  --      0.0048                 0.0062                 0.0087
 IR Inten    --      1.1566                 4.8709                 3.2980

                      7                      8                      9
                      A                      A                      A
 Frequencies --     74.7520                77.5141                88.5340
 Red. masses --      2.4815                 1.4657                 2.8348
 Frc consts  --      0.0082                 0.0052                 0.0131
 IR Inten    --      5.8614                11.7020                 5.7826

                     10                     11                     12
                      A                      A                      A
 Frequencies --     97.7577               113.4532               127.5693
 Red. masses --      4.3018                 4.6125                 3.8138
 Frc consts  --      0.0242                 0.0350                 0.0366
 IR Inten    --      6.4209                 3.7798                10.5504

                     13                     14                     15
                      A                      A                      A
 Frequencies --    145.3853               164.4029               175.9336
 Red. masses --      1.1698                 2.4419                 3.2617
 Frc consts  --      0.0146                 0.0389                 0.0595
 IR Inten    --     72.2531                16.7929                20.0564

                     16                     17                     18
                      A                      A                      A
 Frequencies --    214.9194               218.0676               247.1184
 Red. masses --      1.2988                 2.7883                 1.6233
 Frc consts  --      0.0353                 0.0781                 0.0584
 IR Inten    --    157.7574                37.5956                31.6621

                     19                     20                     21
                      A                      A                      A
 Frequencies --    252.1891               265.9755               303.3285
 Red. masses --      2.1853                 2.6602                 1.1306
 Frc consts  --      0.0819                 0.1109                 0.0613
 IR Inten    --     29.2614                 0.3296                15.8896

                     22                     23                     24
                      A                      A                      A
 Frequencies --    312.7792               321.9417               396.1979
 Red. masses --      4.1202                 4.3867                 1.7148
 Frc consts  --      0.2375                 0.2679                 0.1586
 IR Inten    --     25.1082                15.2980               110.6921

                     25                     26                     27
                      A                      A                      A
 Frequencies --    407.7702               418.5176               428.1050
 Red. masses --      2.4796                 3.1263                 2.6394
 Frc consts  --      0.2429                 0.3226                 0.2850
 IR Inten    --     10.8562                 7.0564                10.5827

                     28                     29                     30
                      A                      A                      A
 Frequencies --    498.8406               547.9707               579.7319
 Red. masses --      1.7237                 3.8105                 2.9421
 Frc consts  --      0.2527                 0.6741                 0.5826
 IR Inten    --    666.2510                 3.3229                 2.1557

                     31                     32                     33
                      A                      A                      A
 Frequencies --    616.4602               625.6913               653.8409
 Red. masses --      1.2855                 5.3046                 2.1116
 Frc consts  --      0.2878                 1.2235                 0.5319
 IR Inten    --     37.6516                14.6731                13.1612

                     34                     35                     36
                      A                      A                      A
 Frequencies --    674.8276               687.0247               710.7978
 Red. masses --      5.6369                 3.8580                 1.1160
 Frc consts  --      1.5124                 1.0729                 0.3322
 IR Inten    --     15.5573                16.3200                60.0198

                     37                     38                     39
                      A                      A                      A
 Frequencies --    725.4303               737.5969               783.6669
 Red. masses --      1.2768                 1.8439                 1.4177
 Frc consts  --      0.3959                 0.5910                 0.5130
 IR Inten    --    332.2277                19.7212                15.3428

                     40                     41                     42
                      A                      A                      A
 Frequencies --    840.1986               846.6379               887.5704
 Red. masses --      1.6038                 2.3666                 1.0525
 Frc consts  --      0.6671                 0.9995                 0.4885
 IR Inten    --     43.3340                21.0925               108.1687

                     43                     44                     45
                      A                      A                      A
 Frequencies --    913.0906               937.7016               950.5113
 Red. masses --      1.2840                 2.5623                 1.4827
 Frc consts  --      0.6307                 1.3274                 0.7893
 IR Inten    --     95.5450                 6.8465                53.6655

                     46                     47                     48
                      A                      A                      A
 Frequencies --    956.8089               974.1257               986.4224
 Red. masses --      2.4675                 1.2091                 1.4119
 Frc consts  --      1.3310                 0.6760                 0.8094
 IR Inten    --     25.9933               157.8845                 2.6246

                     49                     50                     51
                      A                      A                      A
 Frequencies --    994.1514              1011.2263              1029.3632
 Red. masses --      1.2743                 1.7868                 1.3942
 Frc consts  --      0.7420                 1.0765                 0.8704
 IR Inten    --     81.1698                12.9610                 0.7622

                     52                     53                     54
                      A                      A                      A
 Frequencies --   1055.7401              1058.7828              1073.5130
 Red. masses --      2.7288                 3.9210                 1.8474
 Frc consts  --      1.7920                 2.5898                 1.2544
 IR Inten    --      4.0877                 5.2615                23.6109

                     55                     56                     57
                      A                      A                      A
 Frequencies --   1101.5655              1118.9542              1143.8212
 Red. masses --      2.1133                 2.3118                 1.2776
 Frc consts  --      1.5109                 1.7054                 0.9848
 IR Inten    --     29.6565                15.6560                 4.7227

                     58                     59                     60
                      A                      A                      A
 Frequencies --   1155.0511              1195.8995              1218.8689
 Red. masses --      1.4123                 1.9078                 1.4950
 Frc consts  --      1.1102                 1.6076                 1.3086
 IR Inten    --     24.0153                20.5748                24.2860

                     61                     62                     63
                      A                      A                      A
 Frequencies --   1237.2366              1241.8890              1258.0597
 Red. masses --      1.4333                 1.7818                 1.7773
 Frc consts  --      1.2927                 1.6191                 1.6574
 IR Inten    --      6.6129                 4.1177                23.5389

                     64                     65                     66
                      A                      A                      A
 Frequencies --   1263.3835              1276.0573              1291.7552
 Red. masses --      1.7246                 1.1531                 1.5901
 Frc consts  --      1.6218                 1.1063                 1.5633
 IR Inten    --     17.6205               100.4092                 3.9266

                     67                     68                     69
                      A                      A                      A
 Frequencies --   1298.0276              1328.3379              1331.6966
 Red. masses --      1.3486                 1.5384                 2.5780
 Frc consts  --      1.3387                 1.5994                 2.6937
 IR Inten    --     10.2986                 3.6987                 5.1729

                     70                     71                     72
                      A                      A                      A
 Frequencies --   1362.6049              1379.1001              1382.0246
 Red. masses --      1.3586                 1.5000                 1.4809
 Frc consts  --      1.4862                 1.6809                 1.6665
 IR Inten    --      5.6221                 2.8015                 3.8886

                     73                     74                     75
                      A                      A                      A
 Frequencies --   1414.1463              1449.8741              1482.8100
 Red. masses --      1.5903                 1.2072                 1.2445
 Frc consts  --      1.8738                 1.4952                 1.6121
 IR Inten    --      3.0717                 1.7302                30.2933

                     76                     77                     78
                      A                      A                      A
 Frequencies --   1485.4771              1487.0880              1490.5937
 Red. masses --      1.2238                 1.1826                 1.0841
 Frc consts  --      1.5911                 1.5408                 1.4192
 IR Inten    --     40.8232                10.9737                 6.4506

                     79                     80                     81
                      A                      A                      A
 Frequencies --   1506.9648              1507.6144              1523.9903
 Red. masses --      1.1951                 1.0879                 1.1369
 Frc consts  --      1.5990                 1.4569                 1.5557
 IR Inten    --     62.5090                 6.2569                 9.6896

                     82                     83                     84
                      A                      A                      A
 Frequencies --   1537.7758              1549.5920              1635.0456
 Red. masses --      1.9510                 1.1431                 1.0874
 Frc consts  --      2.7183                 1.6172                 1.7128
 IR Inten    --     19.4215                39.0818                71.8500

                     85                     86                     87
                      A                      A                      A
 Frequencies --   1667.3634              1692.9046              1698.1180
 Red. masses --      4.9360                 1.9885                 1.6080
 Frc consts  --      8.0851                 3.3577                 2.7320
 IR Inten    --     55.1878                42.2698                85.2347

                     88                     89                     90
                      A                      A                      A
 Frequencies --   1726.8965              1733.7377              1955.5770
 Red. masses --      1.1019                 1.0748                 1.1114
 Frc consts  --      1.9362                 1.9034                 2.5042
 IR Inten    --    322.2740               324.0133              3022.4185

                     91                     92                     93
                      A                      A                      A
 Frequencies --   2974.6014              2995.9561              3002.2016
 Red. masses --      1.0836                 1.0562                 1.0647
 Frc consts  --      5.6489                 5.5855                 5.6543
 IR Inten    --    224.0537               421.8429                45.1329

                     94                     95                     96
                      A                      A                      A
 Frequencies --   3058.6051              3091.5422              3102.0696
 Red. masses --      1.0729                 1.0636                 1.0691
 Frc consts  --      5.9136                 5.9893                 6.0616
 IR Inten    --   1632.7845                15.9084                23.6114

                     97                     98                     99
                      A                      A                      A
 Frequencies --   3109.8880              3115.6410              3145.1815
 Red. masses --      1.0869                 1.0887                 1.1047
 Frc consts  --      6.1934                 6.2268                 6.4383
 IR Inten    --     21.2174                57.5516                 0.4903

                    100                    101                    102
                      A                      A                      A
 Frequencies --   3151.1985              3162.3148              3207.0411
 Red. masses --      1.1044                 1.1053                 1.0917
 Frc consts  --      6.4617                 6.5127                 6.6155
 IR Inten    --     13.9861                27.5753                 3.0756

                    103                    104                    105
                      A                      A                      A
 Frequencies --   3210.3634              3223.0328              3242.9284
 Red. masses --      1.0923                 1.0921                 1.0993
 Frc consts  --      6.6330                 6.6840                 6.8115
 IR Inten    --     17.4330                 1.0323                 0.7391

                    106                    107                    108
                      A                      A                      A
 Frequencies --   3287.4624              3456.1273              3873.6431
 Red. masses --      1.0684                 1.0697                 1.0452
 Frc consts  --      6.8033                 7.5284                 9.2400
 IR Inten    --    807.4233              1195.1624                33.3206

                    109                    110                    111
                      A                      A                      A
 Frequencies --   3906.4049              3944.2758              3977.9604
 Red. masses --      1.0659                 1.0665                 1.0831
 Frc consts  --      9.5830                 9.7755                10.0979
 IR Inten    --    127.1185                89.4272               123.1071

 - Thermochemistry -
 -------------------
 Temperature   298.150 Kelvin.  Pressure   1.00000 Atm.
 Atom     1 has atomic number  7 and mass  14.00307

 Molecular mass:   235.16578 amu.
 Principal axes and moments of inertia in atomic units:
                           1         2         3
     Eigenvalues --  3861.104645506.066297753.61120
           X            0.99995  -0.01020  -0.00166
           Y            0.01020   0.99995  -0.00138
           Z            0.00168   0.00137   1.00000
 This molecule is an asymmetric top.
 Rotational symmetry number  1.
 Warning -- assumption of classical behavior for rotation
           may cause significant error
 Rotational temperatures (Kelvin)      0.02243     0.01573     0.01117
 Rotational constants (GHZ):           0.46742     0.32777     0.23276
    1 imaginary frequencies ignored.
 Zero-point vibrational energy     883986.1 (Joules/Mol)
                                  211.27774 (Kcal/Mol)
 Warning -- explicit consideration of  30 degrees of freedom as
           vibrations may cause significant error
 Vibrational temperatures:     22.74    42.41    66.41    82.74    91.65
          (Kelvin)            107.55   111.53   127.38   140.65   163.23
                              183.54   209.18   236.54   253.13   309.22
                              313.75   355.55   362.84   382.68   436.42
                              450.02   463.20   570.04   586.69   602.15
                              615.95   717.72   788.41   834.10   886.95
                              900.23   940.73   970.93   988.48  1022.68
                             1043.73  1061.24  1127.52  1208.86  1218.12
                             1277.02  1313.73  1349.14  1367.57  1376.63
                             1401.55  1419.24  1430.36  1454.93  1481.02
                             1518.97  1523.35  1544.55  1584.91  1609.93
                             1645.70  1661.86  1720.63  1753.68  1780.11
                             1786.80  1810.07  1817.73  1835.96  1858.55
                             1867.57  1911.18  1916.01  1960.48  1984.22
                             1988.43  2034.64  2086.05  2133.43  2137.27
                             2139.59  2144.63  2168.19  2169.12  2192.68
                             2212.52  2229.52  2352.47  2398.96  2435.71
                             2443.21  2484.62  2494.46  2813.64  4279.79
                             4310.51  4319.50  4400.65  4448.04  4463.19
                             4474.44  4482.71  4525.21  4533.87  4549.87
                             4614.22  4619.00  4637.23  4665.85  4729.93
                             4972.60  5573.31  5620.45  5674.93  5723.40

 Zero-point correction=                           0.336693 (Hartree/Particle)
 Thermal correction to Energy=                    0.357640
 Thermal correction to Enthalpy=                  0.358584
 Thermal correction to Gibbs Free Energy=         0.284765
 Sum of electronic and zero-point Energies=           -804.684010
 Sum of electronic and thermal Energies=              -804.663063
 Sum of electronic and thermal Enthalpies=            -804.662119
 Sum of electronic and thermal Free Energies=         -804.735938

                     E (Thermal)             CV                S
                      KCal/Mol        Cal/Mol-Kelvin    Cal/Mol-Kelvin
 Total                  224.423             74.562            155.367
 Electronic               0.000              0.000              0.000
 Translational            0.889              2.981             42.267
 Rotational               0.889              2.981             33.466
 Vibrational            222.645             68.600             79.634
 Vibration     1          0.593              1.986              7.102
 Vibration     2          0.593              1.984              5.864
 Vibration     3          0.595              1.979              4.975
 Vibration     4          0.596              1.975              4.541
 Vibration     5          0.597              1.972              4.339
 Vibration     6          0.599              1.966              4.024
 Vibration     7          0.599              1.964              3.953
 Vibration     8          0.601              1.957              3.692
 Vibration     9          0.603              1.951              3.499
 Vibration    10          0.607              1.938              3.209
 Vibration    11          0.611              1.926              2.982
 Vibration    12          0.617              1.908              2.732
 Vibration    13          0.623              1.886              2.499
 Vibration    14          0.628              1.872              2.371
 Vibration    15          0.645              1.818              2.001
 Vibration    16          0.646              1.814              1.975
 Vibration    17          0.661              1.768              1.751
 Vibration    18          0.664              1.759              1.715
 Vibration    19          0.672              1.735              1.622
 Vibration    20          0.695              1.667              1.398
 Vibration    21          0.701              1.649              1.348
 Vibration    22          0.707              1.631              1.300
 Vibration    23          0.763              1.478              0.977
 Vibration    24          0.772              1.453              0.935
 Vibration    25          0.781              1.430              0.897
 Vibration    26          0.790              1.409              0.865
 Vibration    27          0.854              1.253              0.661
 Vibration    28          0.903              1.144              0.548
 Vibration    29          0.936              1.075              0.486
 Vibration    30          0.976              0.997              0.422

 Optimization completed.
    -- Stationary point found.
 Normal termination of Gaussian 16 at Sun Feb 26 13:01:48 2023.
