 Gaussian 16, Revision A.03,
 Gaussian 16:  ES64L-G16RevA.03 25-Dec-2016

 -----------------------------
 # wB97XD/aug-cc-pVDZ opt freq
 -----------------------------

 ----
 blah
 ----
 Symbolic Z-matrix:
 Charge =  1 Multiplicity = 1

 SCF Done:  E(RwB97XD) =  -805.032828692     A.U. after   15 cycles
 SCF Done:  E(RwB97XD) =  -805.033874064     A.U. after   14 cycles
 SCF Done:  E(RwB97XD) =  -805.034197975     A.U. after   12 cycles
 SCF Done:  E(RwB97XD) =  -805.033821658     A.U. after   15 cycles
 SCF Done:  E(RwB97XD) =  -805.034491098     A.U. after   13 cycles
 SCF Done:  E(RwB97XD) =  -805.034609386     A.U. after   10 cycles
 SCF Done:  E(RwB97XD) =  -805.034656935     A.U. after   11 cycles
 SCF Done:  E(RwB97XD) =  -805.034696722     A.U. after   10 cycles
 SCF Done:  E(RwB97XD) =  -805.034733703     A.U. after   11 cycles
 SCF Done:  E(RwB97XD) =  -805.034754609     A.U. after   11 cycles
 SCF Done:  E(RwB97XD) =  -805.034889905     A.U. after   11 cycles
 SCF Done:  E(RwB97XD) =  -805.034890676     A.U. after   11 cycles
 SCF Done:  E(RwB97XD) =  -805.034891617     A.U. after   10 cycles
 SCF Done:  E(RwB97XD) =  -805.034892595     A.U. after    9 cycles
 SCF Done:  E(RwB97XD) =  -805.034892793     A.U. after   10 cycles
 SCF Done:  E(RwB97XD) =  -805.034892935     A.U. after    9 cycles
 SCF Done:  E(RwB97XD) =  -805.034893073     A.U. after    9 cycles
 SCF Done:  E(RwB97XD) =  -805.034893116     A.U. after    9 cycles
 SCF Done:  E(RwB97XD) =  -805.034893129     A.U. after    7 cycles
 Optimization completed.
    -- Stationary point found.
 Normal termination of Gaussian 16 at Wed Feb  1 15:59:53 2023.

 ----------------------------------------------------------------------
 #N Geom=AllCheck Guess=TCheck SCRF=Check GenChk RwB97XD/Aug-CC-pVDZ Fr
 eq
 ----------------------------------------------------------------------

 Structure from the checkpoint file:  "/gscratch/scrubbed/gds001/Gau-24382.chk"
 ----
 blah
 ----
 Charge =  1 Multiplicity = 1

                         Standard orientation:
 ---------------------------------------------------------------------
 Center     Atomic      Atomic             Coordinates (Angstroms)
 Number     Number       Type             X           Y           Z
 ---------------------------------------------------------------------
      1          6           0        0.013635    1.311557   -0.618196
      2          6           0        1.106473    1.236329    0.247839
      3          6           0        1.328741    2.313597    1.106838
      4          6           0        0.473299    3.408480    1.062746
      5          6           0       -0.596871    3.376263    0.172954
      6          7           0       -0.826763    2.347396   -0.648098
      7          6           0        2.030885    0.048750    0.262996
      8          6           0        2.836261   -0.236056   -1.006654
      9          6           0        3.263991   -1.716484   -0.871528
     10          6           0        2.404816   -2.284675    0.273307
     11          7           0        1.328928   -1.267228    0.475707
     12          8           0       -0.428141   -1.887815   -1.469377
     13          1           0        2.961738   -2.365255    1.214056
     14          1           0        4.326493   -1.811489   -0.627394
     15          1           0        3.089709   -2.262410   -1.803544
     16          1           0        2.196885   -0.087439   -1.885118
     17          1           0        3.682823    0.451357   -1.091099
     18          1           0        1.935064   -3.248273    0.054864
     19          1           0        2.714081    0.145735    1.119258
     20          1           0       -0.212519    0.498100   -1.309967
     21          1           0       -1.303106    4.205194    0.118825
     22          1           0        0.622557    4.268184    1.712891
     23          1           0        2.167396    2.300798    1.804586
     24          6           0        0.577685   -1.390500    1.742194
     25          1           0        0.651854   -1.433610   -0.310102
     26          1           0       -1.309592   -1.670069   -1.055734
     27          1           0       -0.550264   -2.614237   -2.082684
     28          1           0       -2.498265    1.837994   -1.299390
     29          8           0       -3.289542    1.266430   -1.375979
     30          1           0       -3.649791    1.397885   -2.255344
     31          8           0       -2.439310   -0.988939   -0.134835
     32          1           0       -2.861659   -0.225924   -0.583435
     33          1           0       -3.145187   -1.484503    0.314811
     34          1           0        0.169190   -2.403163    1.807671
     35          1           0       -0.244682   -0.669357    1.734147
     36          1           0        1.254388   -1.201266    2.582534
     37          8           0       -4.375924   -2.455357    1.241747
     38          1           0       -4.894814   -2.020112    1.923880
     39          1           0       -4.987626   -3.047434    0.795583
 ---------------------------------------------------------------------

 SCF Done:  E(RwB97XD) =  -805.034893129     A.U. after    1 cycles

 The electronic state is 1-A.
 Alpha  occ. eigenvalues --  -19.39460 -19.38869 -19.36164 -19.35892 -14.68170
 Alpha  occ. eigenvalues --  -14.57701 -10.49253 -10.48033 -10.47143 -10.45904
 Alpha  occ. eigenvalues --  -10.45528 -10.44623 -10.44451 -10.43540 -10.43476
 Alpha  occ. eigenvalues --  -10.42820  -1.25191  -1.23790  -1.23092  -1.20865
 Alpha  occ. eigenvalues --   -1.19410  -1.17455  -1.05958  -1.03886  -1.00693
 Alpha  occ. eigenvalues --   -0.96316  -0.93704  -0.88654  -0.85197  -0.84348
 Alpha  occ. eigenvalues --   -0.82915  -0.77446  -0.74985  -0.74481  -0.74051
 Alpha  occ. eigenvalues --   -0.73048  -0.72183  -0.71683  -0.70907  -0.69119
 Alpha  occ. eigenvalues --   -0.68457  -0.65889  -0.64891  -0.64528  -0.62433
 Alpha  occ. eigenvalues --   -0.62309  -0.61722  -0.61496  -0.61034  -0.60520
 Alpha  occ. eigenvalues --   -0.58415  -0.58383  -0.57466  -0.57371  -0.56236
 Alpha  occ. eigenvalues --   -0.55381  -0.54885  -0.52672  -0.52173  -0.50195
 Alpha  occ. eigenvalues --   -0.49524  -0.49096  -0.47040  -0.46044
 Alpha virt. eigenvalues --   -0.08926  -0.07967  -0.06526  -0.05632  -0.05017
 Alpha virt. eigenvalues --   -0.04381  -0.03799  -0.03039  -0.02942  -0.02596
 Alpha virt. eigenvalues --   -0.02391  -0.01492  -0.01229  -0.00977  -0.00583

 Mulliken charges:
               1
     1  C    0.501089
     2  C    1.094344
     3  C    1.177115
     4  C    0.572746
     5  C    0.225170
     6  N   -0.401689
     7  C    1.285730
     8  C    0.937900
     9  C    0.788687
    10  C    1.253432
    11  N   -0.926385
    12  O   -0.472895
    13  H   -0.511411
    14  H   -0.241394
    15  H   -0.228690
    16  H   -0.270713
    17  H   -0.498415
    18  H   -0.483926
    19  H   -0.969042
    20  H   -1.076895
    21  H   -0.588728
    22  H   -0.589878
    23  H   -0.916477
    24  C    1.021377
    25  H    0.265082
    26  H    0.301563
    27  H    0.177335
    28  H    0.214044
    29  O   -0.401962
    30  H    0.176538
    31  O   -0.574927
    32  H    0.278016
    33  H    0.255244
    34  H   -0.145561
    35  H   -0.047622
    36  H   -0.159475
    37  O   -0.309978
    38  H    0.147594
    39  H    0.143056
 Sum of Mulliken charges =   1.00000

 Dipole moment (field-independent basis, Debye):
    X=              1.4062    Y=             -3.6451    Z=              1.7730  Tot=              4.2905
 Quadrupole moment (field-independent basis, Debye-Ang):
   XX=            -46.5715   YY=            -62.5985   ZZ=            -80.6285
   XY=              5.5801   XZ=              1.5516   YZ=              3.1239

  Exact polarizability: 165.332 -15.032 176.957   7.547   9.998 139.479
 Approx polarizability: 173.659 -11.427 182.264  13.967  13.158 164.493

                      1                      2                      3
                      A                      A                      A
 Frequencies --     18.9964                22.4473                37.5416
 Red. masses --      4.8509                 4.5650                 3.8930
 Frc consts  --      0.0010                 0.0014                 0.0032
 IR Inten    --      1.0886                 1.3083                 4.8173

                      4                      5                      6
                      A                      A                      A
 Frequencies --     48.4650                54.4462                56.3534
 Red. masses --      4.8455                 4.4296                 5.7785
 Frc consts  --      0.0067                 0.0077                 0.0108
 IR Inten    --      1.1048                 0.7803                 3.4592

                      7                      8                      9
                      A                      A                      A
 Frequencies --     81.7747                84.1927                99.8906
 Red. masses --      2.2312                 4.7466                 3.9035
 Frc consts  --      0.0088                 0.0198                 0.0229
 IR Inten    --      0.0358                 0.2093                 2.4950

                     10                     11                     12
                      A                      A                      A
 Frequencies --    101.8515               105.2920               135.7746
 Red. masses --      4.4123                 1.0627                 2.2006
 Frc consts  --      0.0270                 0.0069                 0.0239
 IR Inten    --      4.3331                30.9625                 0.7493

                     13                     14                     15
                      A                      A                      A
 Frequencies --    181.7061               185.0591               191.6702
 Red. masses --      4.3144                 2.1997                 1.6768
 Frc consts  --      0.0839                 0.0444                 0.0363
 IR Inten    --     30.6857                29.7445                42.1364

                     16                     17                     18
                      A                      A                      A
 Frequencies --    209.6000               215.8114               227.7356
 Red. masses --      2.8758                 1.4731                 1.2410
 Frc consts  --      0.0744                 0.0404                 0.0379
 IR Inten    --      4.2002                 5.7060                60.2208

                     19                     20                     21
                      A                      A                      A
 Frequencies --    234.9676               248.2013               253.1824
 Red. masses --      1.8131                 1.1821                 1.4294
 Frc consts  --      0.0590                 0.0429                 0.0540
 IR Inten    --     34.4399               103.8668                28.2459

                     22                     23                     24
                      A                      A                      A
 Frequencies --    261.1680               271.6020               313.2532
 Red. masses --      3.2183                 2.8606                 4.0560
 Frc consts  --      0.1293                 0.1243                 0.2345
 IR Inten    --      1.8981               149.6853                 1.0571

                     25                     26                     27
                      A                      A                      A
 Frequencies --    360.7984               394.3765               412.3448
 Red. masses --      5.7700                 3.0151                 2.1623
 Frc consts  --      0.4425                 0.2763                 0.2166
 IR Inten    --     15.1981                 0.0892                25.0084

                     28                     29                     30
                      A                      A                      A
 Frequencies --    434.3896               450.1818               529.8942
 Red. masses --      2.8256                 1.3027                 3.6117
 Frc consts  --      0.3141                 0.1556                 0.5975
 IR Inten    --     23.9401                44.0742                 1.2229

                     31                     32                     33
                      A                      A                      A
 Frequencies --    564.9794               570.7489               631.4491
 Red. masses --      2.5934                 1.1802                 1.7883
 Frc consts  --      0.4877                 0.2265                 0.4201
 IR Inten    --      4.6479                59.8302                28.0734

                     34                     35                     36
                      A                      A                      A
 Frequencies --    642.4026               647.8270               680.1400
 Red. masses --      1.4928                 5.4146                 5.5961
 Frc consts  --      0.3630                 1.3389                 1.5252
 IR Inten    --     49.3214                 5.5346                 2.2041

                     37                     38                     39
                      A                      A                      A
 Frequencies --    738.6521               743.4735               771.0479
 Red. masses --      1.6002                 1.1914                 1.0720
 Frc consts  --      0.5144                 0.3880                 0.3755
 IR Inten    --     43.1636                31.3634               108.8578

                     40                     41                     42
                      A                      A                      A
 Frequencies --    793.4055               816.2924               835.7768
 Red. masses --      1.2111                 2.2189                 1.7791
 Frc consts  --      0.4492                 0.8711                 0.7322
 IR Inten    --      2.5585                11.6759                15.1570

                     43                     44                     45
                      A                      A                      A
 Frequencies --    848.9535               920.4179               932.0935
 Red. masses --      1.0825                 2.7817                 2.5703
 Frc consts  --      0.4597                 1.3884                 1.3157
 IR Inten    --    128.4216                 9.1894                 8.8297

                     46                     47                     48
                      A                      A                      A
 Frequencies --    949.8937               980.5449               986.7038
 Red. masses --      1.9253                 1.3313                 1.6791
 Frc consts  --      1.0235                 0.7542                 0.9632
 IR Inten    --      2.4077                 5.6377                 2.8753

                     49                     50                     51
                      A                      A                      A
 Frequencies --   1001.4869              1013.3936              1032.4982
 Red. masses --      1.4749                 1.1787                 1.4589
 Frc consts  --      0.8716                 0.7132                 0.9164
 IR Inten    --     32.2858                23.7915                 2.0353

                     52                     53                     54
                      A                      A                      A
 Frequencies --   1038.2898              1051.0323              1058.4001
 Red. masses --      1.7516                 4.5633                 2.7012
 Frc consts  --      1.1126                 2.9700                 1.7828
 IR Inten    --     14.3623                14.6281                 7.6169

                     55                     56                     57
                      A                      A                      A
 Frequencies --   1089.1483              1108.9463              1131.7866
 Red. masses --      2.2484                 2.2929                 1.3493
 Frc consts  --      1.5714                 1.6613                 1.0183
 IR Inten    --      2.3164                 3.3320                 4.8299

                     58                     59                     60
                      A                      A                      A
 Frequencies --   1153.0685              1160.2883              1217.4707
 Red. masses --      1.6695                 2.0443                 1.6923
 Frc consts  --      1.3078                 1.6216                 1.4779
 IR Inten    --      7.2369                13.7726                 0.8279

                     61                     62                     63
                      A                      A                      A
 Frequencies --   1224.4295              1231.0669              1244.6355
 Red. masses --      1.4213                 1.6613                 1.3503
 Frc consts  --      1.2554                 1.4834                 1.2324
 IR Inten    --     10.0620                 5.2829                 9.1471

                     64                     65                     66
                      A                      A                      A
 Frequencies --   1269.5728              1284.5505              1297.9126
 Red. masses --      1.4419                 1.3313                 1.5366
 Frc consts  --      1.3693                 1.2943                 1.5251
 IR Inten    --      0.6046                 4.5836                 1.0144

                     67                     68                     69
                      A                      A                      A
 Frequencies --   1315.6771              1334.0325              1367.2687
 Red. masses --      3.3323                 1.4178                 1.2870
 Frc consts  --      3.3985                 1.4866                 1.4176
 IR Inten    --      0.9101                 1.4340                 1.3672

                     70                     71                     72
                      A                      A                      A
 Frequencies --   1377.1030              1381.7082              1413.1509
 Red. masses --      1.4292                 1.3402                 1.6453
 Frc consts  --      1.5969                 1.5075                 1.9359
 IR Inten    --      0.9545                 2.7906                 1.4250

                     73                     74                     75
                      A                      A                      A
 Frequencies --   1456.1171              1477.1047              1482.1313
 Red. masses --      1.1798                 1.0470                 1.1329
 Frc consts  --      1.4738                 1.3459                 1.4662
 IR Inten    --      2.1278                 1.4346                17.3145

                     76                     77                     78
                      A                      A                      A
 Frequencies --   1483.7891              1488.2019              1498.9736
 Red. masses --      1.9304                 1.0726                 1.1108
 Frc consts  --      2.5041                 1.3997                 1.4705
 IR Inten    --     24.0792                 5.0960                28.2945

                     79                     80                     81
                      A                      A                      A
 Frequencies --   1514.0617              1520.7177              1538.4716
 Red. masses --      1.2111                 1.1118                 2.1212
 Frc consts  --      1.6357                 1.5148                 2.9581
 IR Inten    --     44.1356                17.5884                 6.3617

                     82                     83                     84
                      A                      A                      A
 Frequencies --   1565.6577              1624.0414              1636.2073
 Red. masses --      1.1443                 1.0837                 1.0887
 Frc consts  --      1.6527                 1.6840                 1.7173
 IR Inten    --     46.1307                74.8285                87.4036

                     85                     86                     87
                      A                      A                      A
 Frequencies --   1646.4963              1663.2501              1685.9115
 Red. masses --      1.0867                 5.2789                 5.8343
 Frc consts  --      1.7357                 8.6041                 9.7702
 IR Inten    --     52.7588                 8.1359                18.1176

                     88                     89                     90
                      A                      A                      A
 Frequencies --   1693.5910              2988.9605              3075.7467
 Red. masses --      1.0675                 1.0881                 1.0713
 Frc consts  --      1.8040                 5.7273                 5.9713
 IR Inten    --     26.0441              1047.7915                 0.0237

                     91                     92                     93
                      A                      A                      A
 Frequencies --   3079.5106              3099.4354              3101.9062
 Red. masses --      1.0467                 1.0656                 1.0628
 Frc consts  --      5.8485                 6.0313                 6.0252
 IR Inten    --     12.3073                 8.5143                17.2231

                     94                     95                     96
                      A                      A                      A
 Frequencies --   3116.8286              3159.8000              3170.4243
 Red. masses --      1.0632                 1.1057                 1.1054
 Frc consts  --      6.0857                 6.5043                 6.5462
 IR Inten    --      7.2530                 1.4026                 7.0282

                     97                     98                     99
                      A                      A                      A
 Frequencies --   3179.7341              3182.8557              3184.2796
 Red. masses --      1.1013                 1.0974                 1.0903
 Frc consts  --      6.5607                 6.5502                 6.5138
 IR Inten    --    151.3845               230.1310               375.2259

                    100                    101                    102
                      A                      A                      A
 Frequencies --   3193.0676              3195.2390              3196.4489
 Red. masses --      1.1069                 1.0845                 1.0915
 Frc consts  --      6.6492                 6.5236                 6.5709
 IR Inten    --      4.7235               276.6645                 8.4461

                    103                    104                    105
                      A                      A                      A
 Frequencies --   3210.1032              3239.6724              3501.4299
 Red. masses --      1.0924                 1.0982                 1.0633
 Frc consts  --      6.6322                 6.7909                 7.6809
 IR Inten    --      4.7315                 1.7650               622.5427

                    106                    107                    108
                      A                      A                      A
 Frequencies --   3561.4129              3687.5009              3874.3330
 Red. masses --      1.0597                 1.0716                 1.0454
 Frc consts  --      7.9188                 8.5852                 9.2458
 IR Inten    --    878.5434               788.8828                21.9248

                    109                    110                    111
                      A                      A                      A
 Frequencies --   3952.3574              3954.9471              3978.1409
 Red. masses --      1.0688                 1.0671                 1.0825
 Frc consts  --      9.8367                 9.8339                10.0931
 IR Inten    --    119.1091               110.3710               102.8494

 - Thermochemistry -
 -------------------
 Temperature   298.150 Kelvin.  Pressure   1.00000 Atm.
 Atom     1 has atomic number  6 and mass  12.00000

 Molecular mass:   235.16578 amu.
 Principal axes and moments of inertia in atomic units:
                           1         2         3
     Eigenvalues --  4085.711745030.874587390.72180
           X            0.99996  -0.00932  -0.00042
           Y            0.00932   0.99996   0.00019
           Z            0.00042  -0.00019   1.00000
 This molecule is an asymmetric top.
 Rotational symmetry number  1.
 Warning -- assumption of classical behavior for rotation
           may cause significant error
 Rotational temperatures (Kelvin)      0.02120     0.01722     0.01172
 Rotational constants (GHZ):           0.44172     0.35873     0.24419
 Zero-point vibrational energy     902783.1 (Joules/Mol)
                                  215.77034 (Kcal/Mol)
 Warning -- explicit consideration of  32 degrees of freedom as
           vibrations may cause significant error
 Vibrational temperatures:     27.33    32.30    54.01    69.73    78.34
          (Kelvin)             81.08   117.66   121.13   143.72   146.54
                              151.49   195.35   261.43   266.26   275.77
                              301.57   310.50   327.66   338.07   357.11
                              364.27   375.76   390.77   450.70   519.11
                              567.42   593.27   624.99   647.71   762.40
                              812.88   821.18   908.51   924.27   932.08
                              978.57  1062.76  1069.69  1109.37  1141.53
                             1174.46  1202.50  1221.45  1324.28  1341.07
                             1366.69  1410.79  1419.65  1440.92  1458.05
                             1485.53  1493.87  1512.20  1522.80  1567.04
                             1595.53  1628.39  1659.01  1669.40  1751.67
                             1761.68  1771.23  1790.75  1826.63  1848.18
                             1867.41  1892.97  1919.38  1967.19  1981.34
                             1987.97  2033.21  2095.03  2125.22  2132.46
                             2134.84  2141.19  2156.69  2178.40  2187.97
                             2213.52  2252.63  2336.63  2354.14  2368.94
                             2393.05  2425.65  2436.70  4300.45  4425.31
                             4430.73  4459.40  4462.95  4484.42  4546.25
                             4561.53  4574.93  4579.42  4581.47  4594.11
                             4597.24  4598.98  4618.62  4661.17  5037.78
                             5124.08  5305.49  5574.30  5686.56  5690.29
                             5723.66

 Zero-point correction=                           0.343852 (Hartree/Particle)
 Thermal correction to Energy=                    0.366291
 Thermal correction to Enthalpy=                  0.367236
 Thermal correction to Gibbs Free Energy=         0.289910
 Sum of electronic and zero-point Energies=           -804.691041
 Sum of electronic and thermal Energies=              -804.668602
 Sum of electronic and thermal Enthalpies=            -804.667658
 Sum of electronic and thermal Free Energies=         -804.744984

                     E (Thermal)             CV                S
                      KCal/Mol        Cal/Mol-Kelvin    Cal/Mol-Kelvin
 Total                  229.851             78.400            162.746
 Electronic               0.000              0.000              0.000
 Translational            0.889              2.981             42.267
 Rotational               0.889              2.981             33.385
 Vibrational            228.074             72.438             87.095
 Vibration     1          0.593              1.986              6.736
 Vibration     2          0.593              1.985              6.405
 Vibration     3          0.594              1.982              5.385
 Vibration     4          0.595              1.978              4.879
 Vibration     5          0.596              1.976              4.649
 Vibration     6          0.596              1.975              4.581
 Vibration     7          0.600              1.962              3.848
 Vibration     8          0.601              1.960              3.791
 Vibration     9          0.604              1.949              3.456
 Vibration    10          0.604              1.948              3.419
 Vibration    11          0.605              1.945              3.354
 Vibration    12          0.614              1.918              2.863
 Vibration    13          0.630              1.865              2.311
 Vibration    14          0.631              1.860              2.277
 Vibration    15          0.634              1.851              2.212
 Vibration    16          0.642              1.826              2.047
 Vibration    17          0.645              1.817              1.994
 Vibration    18          0.651              1.799              1.897
 Vibration    19          0.655              1.787              1.841
 Vibration    20          0.662              1.766              1.743
 Vibration    21          0.664              1.757              1.708
 Vibration    22          0.669              1.744              1.654
 Vibration    23          0.675              1.726              1.586
 Vibration    24          0.701              1.648              1.345
 Vibration    25          0.735              1.553              1.119
 Vibration    26          0.761              1.482              0.984
 Vibration    27          0.776              1.443              0.918
 Vibration    28          0.795              1.395              0.844
 Vibration    29          0.809              1.360              0.795
 Vibration    30          0.885              1.184              0.587
 Vibration    31          0.921              1.107              0.514
 Vibration    32          0.927              1.095              0.503

                           ! Non-Optimized Parameters !
 Normal termination of Gaussian 16 at Wed Feb  1 17:08:10 2023.
