 Gaussian 16, Revision A.03,
 Gaussian 16:  ES64L-G16RevA.03 25-Dec-2016

 -----------------------------------------
 # wB97XD/aug-cc-pVDZ opt=(MaxStep=1) freq
 -----------------------------------------

 ----
 blah
 ----
 Symbolic Z-matrix:
 Charge =  1 Multiplicity = 1

 SCF Done:  E(RwB97XD) =  -881.415237362     A.U. after   15 cycles
 SCF Done:  E(RwB97XD) =  -881.416699244     A.U. after    8 cycles
 SCF Done:  E(RwB97XD) =  -881.419553384     A.U. after   11 cycles
 SCF Done:  E(RwB97XD) =  -881.424926730     A.U. after   12 cycles
 SCF Done:  E(RwB97XD) =  -881.432459738     A.U. after   13 cycles
 SCF Done:  E(RwB97XD) =  -881.438555917     A.U. after   13 cycles
 SCF Done:  E(RwB97XD) =  -881.442965373     A.U. after   12 cycles
 SCF Done:  E(RwB97XD) =  -881.445388639     A.U. after   13 cycles
 SCF Done:  E(RwB97XD) =  -881.445738049     A.U. after   11 cycles
 SCF Done:  E(RwB97XD) =  -881.448921569     A.U. after   12 cycles
 SCF Done:  E(RwB97XD) =  -881.463923436     A.U. after   11 cycles
 SCF Done:  E(RwB97XD) =  -881.463932948     A.U. after   10 cycles
 SCF Done:  E(RwB97XD) =  -881.463939593     A.U. after   11 cycles
 SCF Done:  E(RwB97XD) =  -881.463942898     A.U. after   11 cycles
 SCF Done:  E(RwB97XD) =  -881.463944398     A.U. after   11 cycles
 SCF Done:  E(RwB97XD) =  -881.463945110     A.U. after   10 cycles
 SCF Done:  E(RwB97XD) =  -881.463945342     A.U. after    9 cycles
 SCF Done:  E(RwB97XD) =  -881.463945555     A.U. after    9 cycles
 SCF Done:  E(RwB97XD) =  -881.463945691     A.U. after    9 cycles
 Optimization completed.
    -- Stationary point found.
 Normal termination of Gaussian 16 at Thu May 18 04:40:03 2023.

 ----------------------------------------------------------------------
 #N Geom=AllCheck Guess=TCheck SCRF=Check GenChk RwB97XD/Aug-CC-pVDZ Fr
 eq
 ----------------------------------------------------------------------

 Structure from the checkpoint file:  "/gscratch/scrubbed/gds001/Gau-20797.chk"
 ----
 blah
 ----
 Charge =  1 Multiplicity = 1

                         Standard orientation:
 ---------------------------------------------------------------------
 Center     Atomic      Atomic             Coordinates (Angstroms)
 Number     Number       Type             X           Y           Z
 ---------------------------------------------------------------------
      1          7           0       -2.136434   -0.807055   -0.439096
      2          6           0       -1.899600   -0.043262    0.811577
      3          6           0       -1.260150   -1.066897    1.785147
      4          6           0       -1.365980   -2.427445    1.067219
      5          6           0       -2.424917   -2.180822    0.000109
      6          6           0       -1.087416    1.200315    0.536493
      7          6           0        0.262463    1.099664    0.207715
      8          7           0        1.033887    2.140764   -0.106501
      9          6           0        0.489511    3.364308   -0.091042
     10          6           0       -0.841702    3.578886    0.242903
     11          6           0       -1.639471    2.479491    0.556154
     12          8           0        3.286439    0.932173   -0.684959
     13          8           0       -0.124934   -0.938479   -2.198449
     14          1           0       -2.368452   -2.869663   -0.851854
     15          1           0       -1.640880   -3.242195    1.744399
     16          1           0       -0.409956   -2.689412    0.596589
     17          1           0       -1.817585   -1.067822    2.727849
     18          1           0       -0.223390   -0.813004    2.029425
     19          1           0       -3.442202   -2.244417    0.427208
     20          1           0       -2.878019    0.272293    1.214430
     21          1           0        0.752694    0.125268    0.205346
     22          1           0        1.145802    4.194005   -0.352385
     23          1           0       -1.245543    4.589326    0.252413
     24          1           0       -2.689829    2.618864    0.815234
     25          6           0       -3.191954   -0.225624   -1.264649
     26          1           0        2.517847    1.574061   -0.517510
     27          1           0       -0.861134   -0.891972   -1.495909
     28          1           0       -0.490258   -1.302317   -3.007900
     29          1           0        2.703250   -0.378666   -1.393120
     30          1           0        4.001267    1.419772   -1.102662
     31          8           0        2.283327   -1.251844   -1.667528
     32          1           0        2.359359   -1.892775   -0.881663
     33          1           0        1.279168   -1.125808   -1.907925
     34          1           0       -3.340980   -0.841951   -2.159705
     35          1           0       -2.901485    0.782297   -1.584959
     36          1           0       -4.149619   -0.166725   -0.719551
     37          8           0        2.370667   -2.646353    0.458067
     38          1           0        2.685226   -1.988842    1.117554
     39          1           0        2.881797   -3.450610    0.579693
     40          8           0        3.029499   -0.420493    1.758869
     41          1           0        3.368416    0.175172    1.069882
     42          1           0        3.477639   -0.192551    2.576544
 ---------------------------------------------------------------------

 SCF Done:  E(RwB97XD) =  -881.463945691     A.U. after    1 cycles

 The electronic state is 1-A.
 Alpha  occ. eigenvalues --  -19.45344 -19.41209 -19.41158 -19.40335 -19.40122
 Alpha  occ. eigenvalues --  -14.58816 -14.58084 -10.46045 -10.45873 -10.45157
 Alpha  occ. eigenvalues --  -10.43923 -10.43563 -10.43164 -10.43059 -10.42850
 Alpha  occ. eigenvalues --  -10.40559 -10.40076  -1.31638  -1.25857  -1.25407
 Alpha  occ. eigenvalues --   -1.24273  -1.23892  -1.18309  -1.16759  -1.04053
 Alpha  occ. eigenvalues --   -1.00689  -0.99525  -0.93764  -0.89062  -0.85682
 Alpha  occ. eigenvalues --   -0.84700  -0.80813  -0.80191  -0.79654  -0.79123
 Alpha  occ. eigenvalues --   -0.77490  -0.76836  -0.75638  -0.74963  -0.72989
 Alpha  occ. eigenvalues --   -0.70955  -0.69925  -0.68661  -0.66881  -0.65412
 Alpha  occ. eigenvalues --   -0.65215  -0.63799  -0.62965  -0.62491  -0.62021
 Alpha  occ. eigenvalues --   -0.61685  -0.60553  -0.60245  -0.59583  -0.59277
 Alpha  occ. eigenvalues --   -0.58360  -0.56391  -0.55430  -0.55391  -0.55001
 Alpha  occ. eigenvalues --   -0.54190  -0.54043  -0.53543  -0.53349  -0.51756
 Alpha  occ. eigenvalues --   -0.49080  -0.48646  -0.45718  -0.44614
 Alpha virt. eigenvalues --   -0.08942  -0.07536  -0.06801  -0.05300  -0.04883
 Alpha virt. eigenvalues --   -0.04446  -0.03423  -0.03320  -0.02767  -0.02390
 Alpha virt. eigenvalues --   -0.01875  -0.01229  -0.00813  -0.00637  -0.00374

 Mulliken charges:
               1
     1  N   -1.527828
     2  C    0.875953
     3  C    1.167791
     4  C    1.036764
     5  C    1.385749
     6  C    1.420844
     7  C    0.971165
     8  N   -0.438728
     9  C    0.249739
    10  C    0.488723
    11  C    0.990065
    12  O   -0.885098
    13  O   -0.526957
    14  H   -0.513720
    15  H   -0.380987
    16  H   -0.312708
    17  H   -0.482680
    18  H   -0.546417
    19  H   -0.452620
    20  H   -0.766559
    21  H   -1.407524
    22  H   -0.677792
    23  H   -0.620479
    24  H   -0.903143
    25  C    1.059111
    26  H    0.482551
    27  H    0.552153
    28  H    0.183438
    29  H    0.489018
    30  H    0.297924
    31  O   -0.610689
    32  H    0.514611
    33  H    0.547682
    34  H   -0.219330
    35  H   -0.162929
    36  H   -0.208068
    37  O   -0.556374
    38  H    0.328593
    39  H    0.216330
    40  O   -0.492811
    41  H    0.200415
    42  H    0.234823
 Sum of Mulliken charges =   1.00000

 Dipole moment (field-independent basis, Debye):
    X=              2.6373    Y=             -0.2003    Z=             -0.4444  Tot=              2.6819
 Quadrupole moment (field-independent basis, Debye-Ang):
   XX=            -57.3724   YY=            -70.5179   ZZ=            -89.0783
   XY=             -1.3162   XZ=              4.3101   YZ=             -0.0552

  Exact polarizability: 180.946   4.540 192.623  -4.349  -4.053 140.743
 Approx polarizability: 195.170   0.909 201.298  -9.089  -3.508 160.542

                      1                      2                      3
                      A                      A                      A
 Frequencies --     23.6561                37.8308                43.3969
 Red. masses --      4.4166                 4.2186                 4.8507
 Frc consts  --      0.0015                 0.0036                 0.0054
 IR Inten    --      0.0722                 1.5689                 0.3541

                      4                      5                      6
                      A                      A                      A
 Frequencies --     55.7830                61.1567                65.0496
 Red. masses --      3.6315                 3.8864                 5.3192
 Frc consts  --      0.0067                 0.0086                 0.0133
 IR Inten    --      0.1868                 0.0489                 1.1705

                      7                      8                      9
                      A                      A                      A
 Frequencies --     84.0692                96.9096               105.8543
 Red. masses --      4.7402                 4.7227                 4.9254
 Frc consts  --      0.0197                 0.0261                 0.0325
 IR Inten    --      0.7442                 0.8770                 1.4736

                     10                     11                     12
                      A                      A                      A
 Frequencies --    108.0838               132.3551               163.2532
 Red. masses --      4.7739                 3.8564                 4.6335
 Frc consts  --      0.0329                 0.0398                 0.0728
 IR Inten    --      1.3019                 2.3896                14.7054

                     13                     14                     15
                      A                      A                      A
 Frequencies --    189.7748               205.1941               213.3437
 Red. masses --      4.8945                 2.7712                 2.2201
 Frc consts  --      0.1039                 0.0687                 0.0595
 IR Inten    --      4.2762                 2.6009                12.2305

                     16                     17                     18
                      A                      A                      A
 Frequencies --    225.2139               230.0668               241.0172
 Red. masses --      1.4033                 1.5460                 1.6278
 Frc consts  --      0.0419                 0.0482                 0.0557
 IR Inten    --     44.3076                78.4631                79.4769

                     19                     20                     21
                      A                      A                      A
 Frequencies --    263.7702               266.1150               275.2958
 Red. masses --      1.8738                 1.4387                 5.5566
 Frc consts  --      0.0768                 0.0600                 0.2481
 IR Inten    --      0.8260                 1.4929                16.1429

                     22                     23                     24
                      A                      A                      A
 Frequencies --    315.2411               331.2113               339.3204
 Red. masses --      4.3998                 1.6530                 3.1651
 Frc consts  --      0.2576                 0.1068                 0.2147
 IR Inten    --     38.6558                28.7897                 1.7727

                     25                     26                     27
                      A                      A                      A
 Frequencies --    349.4323               371.5311               376.7422
 Red. masses --      2.2920                 2.2319                 1.3458
 Frc consts  --      0.1649                 0.1815                 0.1125
 IR Inten    --    110.8076                34.7596                46.2440

                     28                     29                     30
                      A                      A                      A
 Frequencies --    396.4539               423.0162               443.8807
 Red. masses --      2.8522                 3.1907                 3.4309
 Frc consts  --      0.2641                 0.3364                 0.3983
 IR Inten    --     24.2382                 1.3409                30.3803

                     31                     32                     33
                      A                      A                      A
 Frequencies --    487.5667               519.7432               551.6457
 Red. masses --      1.1099                 1.0927                 2.8822
 Frc consts  --      0.1555                 0.1739                 0.5168
 IR Inten    --    147.0357                47.5960                 9.8495

                     34                     35                     36
                      A                      A                      A
 Frequencies --    568.8235               583.3018               638.3701
 Red. masses --      1.1939                 2.6700                 2.3972
 Frc consts  --      0.2276                 0.5352                 0.5756
 IR Inten    --     33.7928                 2.5899                 2.5920

                     37                     38                     39
                      A                      A                      A
 Frequencies --    648.3304               658.3485               672.6325
 Red. masses --      3.3366                 3.4546                 1.4178
 Frc consts  --      0.8263                 0.8822                 0.3779
 IR Inten    --      7.0837                11.7116                85.8878

                     40                     41                     42
                      A                      A                      A
 Frequencies --    700.1577               739.6500               766.6382
 Red. masses --      1.1572                 1.9055                 1.0313
 Frc consts  --      0.3342                 0.6142                 0.3571
 IR Inten    --    133.7103                29.5588                34.1853

                     43                     44                     45
                      A                      A                      A
 Frequencies --    790.2817               835.4451               843.1657
 Red. masses --      2.0472                 1.5867                 1.1024
 Frc consts  --      0.7533                 0.6525                 0.4617
 IR Inten    --     25.0250                26.7256                39.9550

                     46                     47                     48
                      A                      A                      A
 Frequencies --    863.4598               916.2819               932.5967
 Red. masses --      2.0369                 1.9449                 2.9139
 Frc consts  --      0.8947                 0.9621                 1.4932
 IR Inten    --      5.3823                26.8843                 0.8923

                     49                     50                     51
                      A                      A                      A
 Frequencies --    956.9516               965.8638               972.0583
 Red. masses --      2.0435                 1.2463                 1.2209
 Frc consts  --      1.1026                 0.6850                 0.6797
 IR Inten    --      8.2682                31.8795                42.3449

                     52                     53                     54
                      A                      A                      A
 Frequencies --    983.2801               996.0965              1004.3613
 Red. masses --      1.5248                 1.4710                 1.2277
 Frc consts  --      0.8686                 0.8599                 0.7297
 IR Inten    --      1.7426                 1.0199                11.8645

                     55                     56                     57
                      A                      A                      A
 Frequencies --   1026.2072              1037.1893              1057.9957
 Red. masses --      1.4044                 1.0862                 4.9949
 Frc consts  --      0.8714                 0.6885                 3.2942
 IR Inten    --      1.2738                60.8122                 6.1368

                     58                     59                     60
                      A                      A                      A
 Frequencies --   1060.7508              1074.7329              1092.5473
 Red. masses --      1.8441                 2.3649                 1.2021
 Frc consts  --      1.2225                 1.6094                 0.8454
 IR Inten    --     21.2187                10.9759                36.0708

                     61                     62                     63
                      A                      A                      A
 Frequencies --   1098.1675              1110.7529              1146.3875
 Red. masses --      1.7530                 1.7869                 1.2439
 Frc consts  --      1.2455                 1.2989                 0.9631
 IR Inten    --      4.2390                 9.9305                 6.8656

                     64                     65                     66
                      A                      A                      A
 Frequencies --   1152.4518              1178.9303              1215.4421
 Red. masses --      1.4033                 1.8083                 1.6801
 Frc consts  --      1.0981                 1.4808                 1.4624
 IR Inten    --     23.9226                13.7572                16.0389

                     67                     68                     69
                      A                      A                      A
 Frequencies --   1236.0645              1239.9857              1256.2492
 Red. masses --      1.5079                 1.7379                 1.7703
 Frc consts  --      1.3574                 1.5744                 1.6461
 IR Inten    --      1.1759                17.6948                14.0000

                     70                     71                     72
                      A                      A                      A
 Frequencies --   1266.5633              1273.5223              1313.1922
 Red. masses --      1.9359                 1.3840                 1.6498
 Frc consts  --      1.8298                 1.3225                 1.6762
 IR Inten    --     14.2590                 6.6831                 2.1100

                     73                     74                     75
                      A                      A                      A
 Frequencies --   1318.8624              1343.0036              1360.0378
 Red. masses --      2.5158                 1.3154                 1.3066
 Frc consts  --      2.5782                 1.3979                 1.4239
 IR Inten    --      1.7120                 3.9580                71.4045

                     76                     77                     78
                      A                      A                      A
 Frequencies --   1363.1417              1373.9054              1383.1665
 Red. masses --      1.2690                 1.3889                 1.4863
 Frc consts  --      1.3893                 1.5446                 1.6753
 IR Inten    --    121.7027                60.0596                22.2598

                     79                     80                     81
                      A                      A                      A
 Frequencies --   1402.9222              1447.9667              1481.2931
 Red. masses --      1.5898                 1.1931                 1.9175
 Frc consts  --      1.8436                 1.4738                 2.4789
 IR Inten    --      6.9511                 3.4131                22.0638

                     82                     83                     84
                      A                      A                      A
 Frequencies --   1485.9624              1490.5115              1494.4856
 Red. masses --      1.1380                 1.0617                 1.0930
 Frc consts  --      1.4805                 1.3897                 1.4383
 IR Inten    --     16.8925                 9.0661                 6.8222

                     85                     86                     87
                      A                      A                      A
 Frequencies --   1506.4929              1519.6617              1533.8159
 Red. masses --      1.0997                 1.1960                 2.0385
 Frc consts  --      1.4705                 1.6273                 2.8256
 IR Inten    --      9.4352                 8.0749                 6.1047

                     88                     89                     90
                      A                      A                      A
 Frequencies --   1618.6886              1650.1161              1652.3038
 Red. masses --      1.0776                 1.1523                 1.2385
 Frc consts  --      1.6635                 1.8485                 1.9921
 IR Inten    --    103.7563                25.9769                76.9995

                     91                     92                     93
                      A                      A                      A
 Frequencies --   1668.0388              1688.9879              1693.0101
 Red. masses --      2.1134                 1.8867                 1.9840
 Frc consts  --      3.4646                 3.1712                 3.3506
 IR Inten    --     26.1642                 1.3304                57.0719

                     94                     95                     96
                      A                      A                      A
 Frequencies --   1711.5896              1752.2278              2373.0599
 Red. masses --      1.0914                 1.0446                 1.1176
 Frc consts  --      1.8838                 1.8896                 3.7081
 IR Inten    --      5.4068                 8.1723              2702.3573

                     97                     98                     99
                      A                      A                      A
 Frequencies --   2772.1067              2774.2237              2867.1895
 Red. masses --      1.0919                 1.0801                 1.0726
 Frc consts  --      4.9438                 4.8975                 5.1954
 IR Inten    --   1993.9744              1662.4087              1596.6998

                    100                    101                    102
                      A                      A                      A
 Frequencies --   3004.5482              3008.3512              3014.5274
 Red. masses --      1.0728                 1.0752                 1.0525
 Frc consts  --      5.7060                 5.7333                 5.6351
 IR Inten    --     17.2115                 9.2288                37.6023

                    103                    104                    105
                      A                      A                      A
 Frequencies --   3071.6577              3086.6830              3102.2592
 Red. masses --      1.0558                 1.0658                 1.0633
 Frc consts  --      5.8692                 5.9830                 6.0290
 IR Inten    --    831.9856                10.2133                16.9053

                    106                    107                    108
                      A                      A                      A
 Frequencies --   3110.2715              3118.4146              3145.5337
 Red. masses --      1.0907                 1.0944                 1.1043
 Frc consts  --      6.2166                 6.2702                 6.4374
 IR Inten    --     17.8011                27.7464                 3.1617

                    109                    110                    111
                      A                      A                      A
 Frequencies --   3147.5389              3161.2269              3195.5181
 Red. masses --      1.1046                 1.1045                 1.0909
 Frc consts  --      6.4477                 6.5033                 6.5631
 IR Inten    --     14.0900                22.5141                10.9406

                    112                    113                    114
                      A                      A                      A
 Frequencies --   3202.8085              3215.4327              3238.4998
 Red. masses --      1.0914                 1.0922                 1.0988
 Frc consts  --      6.5962                 6.6530                 6.7900
 IR Inten    --      1.8492                 4.2025                 1.7409

                    115                    116                    117
                      A                      A                      A
 Frequencies --   3498.1438              3703.0340              3923.7436
 Red. masses --      1.0623                 1.0573                 1.0660
 Frc consts  --      7.6593                 8.5421                 9.6693
 IR Inten    --    679.4335               303.5237               127.5588

                    118                    119                    120
                      A                      A                      A
 Frequencies --   3933.5904              3937.6375              3950.7353
 Red. masses --      1.0684                 1.0662                 1.0722
 Frc consts  --      9.7400                 9.7402                 9.8599
 IR Inten    --    133.2591               107.1663               140.3114

 - Thermochemistry -
 -------------------
 Temperature   298.150 Kelvin.  Pressure   1.00000 Atm.
 Atom     1 has atomic number  7 and mass  14.00307

 Molecular mass:   253.17635 amu.
 Principal axes and moments of inertia in atomic units:
                           1         2         3
     Eigenvalues --  4334.193664974.590416971.64741
           X            0.99966   0.02472   0.00879
           Y           -0.02464   0.99966  -0.00836
           Z           -0.00899   0.00814   0.99993
 This molecule is an asymmetric top.
 Rotational symmetry number  1.
 Warning -- assumption of classical behavior for rotation
           may cause significant error
 Rotational temperatures (Kelvin)      0.01998     0.01741     0.01242
 Rotational constants (GHZ):           0.41640     0.36279     0.25887
 Zero-point vibrational energy     965165.9 (Joules/Mol)
                                  230.68018 (Kcal/Mol)
 Warning -- explicit consideration of  35 degrees of freedom as
           vibrations may cause significant error
 Vibrational temperatures:     34.04    54.43    62.44    80.26    87.99
          (Kelvin)             93.59   120.96   139.43   152.30   155.51
                              190.43   234.88   273.04   295.23   306.95
                              324.03   331.01   346.77   379.51   382.88
                              396.09   453.56   476.54   488.21   502.76
                              534.55   542.05   570.41   608.63   638.65
                              701.50   747.79   793.70   818.41   839.24
                              918.47   932.80   947.22   967.77  1007.37
                             1064.19  1103.02  1137.04  1202.02  1213.13
                             1242.33  1318.33  1341.80  1376.84  1389.66
                             1398.58  1414.72  1433.16  1445.05  1476.48
                             1492.28  1522.22  1526.18  1546.30  1571.93
                             1580.02  1598.13  1649.40  1658.12  1696.22
                             1748.75  1778.42  1784.06  1807.46  1822.30
                             1832.31  1889.39  1897.55  1932.28  1956.79
                             1961.26  1976.74  1990.07  2018.49  2083.30
                             2131.25  2137.97  2144.51  2150.23  2167.51
                             2186.45  2206.82  2328.93  2374.15  2377.30
                             2399.94  2430.08  2435.86  2462.60  2521.07
                             3414.30  3988.44  3991.49  4125.25  4322.87
                             4328.35  4337.23  4419.43  4441.05  4463.46
                             4474.99  4486.70  4525.72  4528.61  4548.30
                             4597.64  4608.13  4626.29  4659.48  5033.05
                             5327.84  5645.39  5659.56  5665.38  5684.23

 Zero-point correction=                           0.367612 (Hartree/Particle)
 Thermal correction to Energy=                    0.390301
 Thermal correction to Enthalpy=                  0.391245
 Thermal correction to Gibbs Free Energy=         0.315337
 Sum of electronic and zero-point Energies=           -881.096333
 Sum of electronic and thermal Energies=              -881.073645
 Sum of electronic and thermal Enthalpies=            -881.072700
 Sum of electronic and thermal Free Energies=         -881.148608

                     E (Thermal)             CV                S
                      KCal/Mol        Cal/Mol-Kelvin    Cal/Mol-Kelvin
 Total                  244.918             82.887            159.762
 Electronic               0.000              0.000              0.000
 Translational            0.889              2.981             42.487
 Rotational               0.889              2.981             33.374
 Vibrational            243.140             76.925             83.901
 Vibration     1          0.593              1.985              6.301
 Vibration     2          0.594              1.982              5.370
 Vibration     3          0.595              1.980              5.098
 Vibration     4          0.596              1.975              4.601
 Vibration     5          0.597              1.973              4.420
 Vibration     6          0.597              1.971              4.298
 Vibration     7          0.601              1.960              3.794
 Vibration     8          0.603              1.951              3.516
 Vibration     9          0.605              1.945              3.344
 Vibration    10          0.606              1.943              3.303
 Vibration    11          0.612              1.921              2.912
 Vibration    12          0.623              1.888              2.512
 Vibration    13          0.633              1.854              2.230
 Vibration    14          0.640              1.832              2.086
 Vibration    15          0.644              1.821              2.015
 Vibration    16          0.650              1.803              1.917
 Vibration    17          0.652              1.795              1.878
 Vibration    18          0.658              1.778              1.795
 Vibration    19          0.670              1.739              1.637
 Vibration    20          0.672              1.735              1.621
 Vibration    21          0.677              1.719              1.563
 Vibration    22          0.703              1.645              1.335
 Vibration    23          0.714              1.613              1.254
 Vibration    24          0.719              1.597              1.215
 Vibration    25          0.727              1.576              1.169
 Vibration    26          0.743              1.531              1.073
 Vibration    27          0.747              1.520              1.052
 Vibration    28          0.763              1.478              0.976
 Vibration    29          0.785              1.420              0.882
 Vibration    30          0.803              1.374              0.814
 Vibration    31          0.844              1.278              0.690
 Vibration    32          0.875              1.206              0.611
 Vibration    33          0.907              1.136              0.541
 Vibration    34          0.925              1.099              0.507
 Vibration    35          0.940              1.067              0.479

                           ! Non-Optimized Parameters !
 Normal termination of Gaussian 16 at Thu May 18 06:16:29 2023.
