 Gaussian 16, Revision A.03,
 Gaussian 16:  ES64L-G16RevA.03 25-Dec-2016

 ----------------------------------------------------------------
 # wB97XD/aug-cc-pVDZ opt=(TS,CalcAll,MaxStep=5,NoEigenTest) freq
 ----------------------------------------------------------------

 ----
 blah
 ----
 Symbolic Z-matrix:
 Charge =  1 Multiplicity = 1

 SCF Done:  E(RwB97XD) =  -881.456233794     A.U. after   14 cycles
 SCF Done:  E(RwB97XD) =  -881.456818478     A.U. after   11 cycles
 SCF Done:  E(RwB97XD) =  -881.457342925     A.U. after   11 cycles
 SCF Done:  E(RwB97XD) =  -881.457806462     A.U. after   11 cycles
 SCF Done:  E(RwB97XD) =  -881.458212051     A.U. after   11 cycles
 SCF Done:  E(RwB97XD) =  -881.458560633     A.U. after   11 cycles
 SCF Done:  E(RwB97XD) =  -881.458856869     A.U. after   11 cycles
 SCF Done:  E(RwB97XD) =  -881.459103660     A.U. after   11 cycles
 SCF Done:  E(RwB97XD) =  -881.459299053     A.U. after   11 cycles
 SCF Done:  E(RwB97XD) =  -881.459443891     A.U. after   11 cycles
 SCF Done:  E(RwB97XD) =  -881.459541821     A.U. after   11 cycles
 SCF Done:  E(RwB97XD) =  -881.459592063     A.U. after   11 cycles
 SCF Done:  E(RwB97XD) =  -881.459599626     A.U. after   11 cycles
 SCF Done:  E(RwB97XD) =  -881.459599618     A.U. after    9 cycles
 Optimization completed.
    -- Stationary point found.

 The electronic state is 1-A.
 Alpha  occ. eigenvalues --  -19.42854 -19.39951 -19.39474 -19.39413 -19.38386
 Alpha  occ. eigenvalues --  -14.62625 -14.57919 -10.48328 -10.48195 -10.45734
 Alpha  occ. eigenvalues --  -10.45673 -10.45190 -10.44774 -10.43150 -10.43090
 Alpha  occ. eigenvalues --  -10.40864 -10.40039  -1.29107  -1.24645  -1.23503
 Alpha  occ. eigenvalues --   -1.23489  -1.22377  -1.20316  -1.16898  -1.05923
 Alpha  occ. eigenvalues --   -1.02388  -1.00110  -0.94771  -0.89247  -0.87716
 Alpha  occ. eigenvalues --   -0.86801  -0.80320  -0.79674  -0.78585  -0.77953
 Alpha  occ. eigenvalues --   -0.77602  -0.75851  -0.74734  -0.74352  -0.72816
 Alpha  occ. eigenvalues --   -0.72312  -0.70463  -0.69154  -0.67518  -0.65996
 Alpha  occ. eigenvalues --   -0.65637  -0.64186  -0.63822  -0.63009  -0.62456
 Alpha  occ. eigenvalues --   -0.61574  -0.60818  -0.59768  -0.59249  -0.58667
 Alpha  occ. eigenvalues --   -0.57542  -0.56472  -0.55736  -0.54746  -0.54119
 Alpha  occ. eigenvalues --   -0.53567  -0.53352  -0.53009  -0.52805  -0.51809
 Alpha  occ. eigenvalues --   -0.50970  -0.50679  -0.47416  -0.44304
 Alpha virt. eigenvalues --   -0.11197  -0.09154  -0.06471  -0.05161  -0.04940
 Alpha virt. eigenvalues --   -0.04549  -0.03423  -0.03246  -0.02872  -0.02401
 Alpha virt. eigenvalues --   -0.01986  -0.01303  -0.00957  -0.00618  -0.00475

 Mulliken charges:
               1
     1  N   -1.375028
     2  C    0.880123
     3  C    1.091808
     4  C    1.053315
     5  C    1.404631
     6  C    1.465997
     7  C    1.095838
     8  N   -0.387294
     9  C    0.506345
    10  C    0.405592
    11  C    0.984551
    12  O   -1.084404
    13  O   -0.501692
    14  H   -0.506388
    15  H   -0.387166
    16  H   -0.294037
    17  H   -0.491033
    18  H   -0.499649
    19  H   -0.472055
    20  H   -0.728655
    21  H   -1.494849
    22  H   -0.739957
    23  H   -0.605558
    24  H   -0.903854
    25  C    1.030540
    26  H    0.524141
    27  H    0.462279
    28  H    0.191040
    29  H    0.627993
    30  H    0.183989
    31  O   -0.612756
    32  H    0.444588
    33  H    0.441764
    34  H   -0.224167
    35  H   -0.160511
    36  H   -0.227141
    37  O   -0.600228
    38  H    0.314222
    39  H    0.232465
    40  O   -0.445245
    41  H    0.181230
    42  H    0.219216
 Sum of Mulliken charges =   1.00000

 Dipole moment (field-independent basis, Debye):
    X=             -1.5083    Y=              1.3828    Z=             -0.0613  Tot=              2.0471
 Quadrupole moment (field-independent basis, Debye-Ang):
   XX=            -62.2327   YY=            -67.3605   ZZ=            -90.6158
   XY=              0.6044   XZ=              5.1463   YZ=              1.3038

  Exact polarizability: 183.175  -6.356 190.684  -4.896   2.376 140.964
 Approx polarizability: 195.692  -2.196 201.601  -9.335   1.442 160.183

 ******    1 imaginary frequencies (negative Signs) ******

                      1                      2                      3
                      A                      A                      A
 Frequencies --   -954.7470                21.4315                42.3577
 Red. masses --      1.0717                 4.5128                 4.6642
 Frc consts  --      0.5756                 0.0012                 0.0049
 IR Inten    --   3639.8094                 0.0236                 2.3194

                      4                      5                      6
                      A                      A                      A
 Frequencies --     48.9507                56.1919                60.1768
 Red. masses --      4.3671                 3.7927                 3.7235
 Frc consts  --      0.0062                 0.0071                 0.0079
 IR Inten    --      0.3937                 0.5809                 0.3318

                      7                      8                      9
                      A                      A                      A
 Frequencies --     73.2719                85.0231               101.8594
 Red. masses --      5.5636                 4.6972                 4.2532
 Frc consts  --      0.0176                 0.0200                 0.0260
 IR Inten    --      0.2192                 0.5574                 0.7623

                     10                     11                     12
                      A                      A                      A
 Frequencies --    115.3338               121.4589               139.1240
 Red. masses --      5.3612                 4.6099                 4.2593
 Frc consts  --      0.0420                 0.0401                 0.0486
 IR Inten    --      0.4639                 2.5209                 3.1852

                     13                     14                     15
                      A                      A                      A
 Frequencies --    163.9613               189.8435               210.7388
 Red. masses --      4.7389                 3.9402                 2.4558
 Frc consts  --      0.0751                 0.0837                 0.0643
 IR Inten    --     19.1251                18.5015                 4.9591

                     16                     17                     18
                      A                      A                      A
 Frequencies --    233.6764               236.8301               259.2966
 Red. masses --      1.3761                 1.5216                 2.8529
 Frc consts  --      0.0443                 0.0503                 0.1130
 IR Inten    --     40.6322                44.6124                73.5354

                     19                     20                     21
                      A                      A                      A
 Frequencies --    264.4378               265.8781               268.7108
 Red. masses --      2.0044                 1.1552                 2.0917
 Frc consts  --      0.0826                 0.0481                 0.0890
 IR Inten    --     15.4479                 2.5387                 6.1411

                     22                     23                     24
                      A                      A                      A
 Frequencies --    320.2513               330.9882               333.6143
 Red. masses --      3.2396                 3.8541                 1.3489
 Frc consts  --      0.1958                 0.2488                 0.0885
 IR Inten    --     12.0782                52.5752                92.8523

                     25                     26                     27
                      A                      A                      A
 Frequencies --    341.5152               379.5746               389.3612
 Red. masses --      3.5282                 1.2991                 2.9902
 Frc consts  --      0.2425                 0.1103                 0.2671
 IR Inten    --     21.1547                16.0233                 3.9356

                     28                     29                     30
                      A                      A                      A
 Frequencies --    414.1177               420.6724               428.1397
 Red. masses --      2.7644                 3.3297                 3.1472
 Frc consts  --      0.2793                 0.3472                 0.3399
 IR Inten    --     16.4043                 3.3895                 7.8039

                     31                     32                     33
                      A                      A                      A
 Frequencies --    500.3901               534.7888               555.3710
 Red. masses --      1.2600                 2.8817                 1.4589
 Frc consts  --      0.1859                 0.4856                 0.2651
 IR Inten    --    172.6512               324.6739               110.7891

                     34                     35                     36
                      A                      A                      A
 Frequencies --    559.6543               583.8692               623.6219
 Red. masses --      2.0975                 2.5685                 1.2232
 Frc consts  --      0.3871                 0.5159                 0.2803
 IR Inten    --     34.7110                 0.9484                30.0272

                     37                     38                     39
                      A                      A                      A
 Frequencies --    639.7250               643.7898               661.4999
 Red. masses --      2.3170                 1.3594                 2.2649
 Frc consts  --      0.5587                 0.3320                 0.5839
 IR Inten    --     29.2576                30.6772                19.4573

                     40                     41                     42
                      A                      A                      A
 Frequencies --    693.6817               726.4435               740.3172
 Red. masses --      3.7281                 1.8879                 1.2860
 Frc consts  --      1.0570                 0.5870                 0.4153
 IR Inten    --     16.0197                40.9325               269.4763

                     43                     44                     45
                      A                      A                      A
 Frequencies --    779.4769               812.2005               829.3278
 Red. masses --      1.0485                 1.7121                 1.1222
 Frc consts  --      0.3753                 0.6654                 0.4547
 IR Inten    --     62.7223                43.3931               271.3411

                     46                     47                     48
                      A                      A                      A
 Frequencies --    838.7463               873.6233               907.9318
 Red. masses --      1.6205                 1.8394                 1.2471
 Frc consts  --      0.6717                 0.8271                 0.6057
 IR Inten    --     26.1781                14.5614                81.2816

                     49                     50                     51
                      A                      A                      A
 Frequencies --    912.2308               941.0386               950.7660
 Red. masses --      1.7544                 2.5862                 1.5190
 Frc consts  --      0.8602                 1.3494                 0.8090
 IR Inten    --     26.7941                12.3333                 9.6070

                     52                     53                     54
                      A                      A                      A
 Frequencies --    963.5464               969.7679               983.9504
 Red. masses --      1.6964                 1.1774                 1.5935
 Frc consts  --      0.9279                 0.6524                 0.9090
 IR Inten    --      3.0980                18.5994                 0.5217

                     55                     56                     57
                      A                      A                      A
 Frequencies --    996.3488              1028.1320              1061.3140
 Red. masses --      1.7493                 1.3942                 1.7676
 Frc consts  --      1.0231                 0.8683                 1.1731
 IR Inten    --      4.5490                 0.3781                20.4754

                     58                     59                     60
                      A                      A                      A
 Frequencies --   1067.4981              1077.8858              1085.3567
 Red. masses --      4.1133                 2.1539                 1.1663
 Frc consts  --      2.7617                 1.4744                 0.8095
 IR Inten    --     38.9044                12.1273                86.2861

                     61                     62                     63
                      A                      A                      A
 Frequencies --   1108.1286              1120.4070              1142.8289
 Red. masses --      1.8234                 2.0423                 1.2541
 Frc consts  --      1.3192                 1.5105                 0.9650
 IR Inten    --      4.2966                50.9611                 5.9100

                     64                     65                     66
                      A                      A                      A
 Frequencies --   1156.2243              1177.5350              1213.8653
 Red. masses --      1.4471                 1.7160                 1.6536
 Frc consts  --      1.1398                 1.4019                 1.4356
 IR Inten    --     65.4417                10.1505                18.4794

                     67                     68                     69
                      A                      A                      A
 Frequencies --   1229.5211              1237.8831              1259.6869
 Red. masses --      1.3332                 1.9791                 1.8248
 Frc consts  --      1.1874                 1.7868                 1.7061
 IR Inten    --      0.9137                14.2360                23.1191

                     70                     71                     72
                      A                      A                      A
 Frequencies --   1265.0172              1273.9094              1314.5313
 Red. masses --      2.1200                 1.3297                 1.3186
 Frc consts  --      1.9988                 1.2714                 1.3425
 IR Inten    --     16.5919                11.4736                 0.8658

                     73                     74                     75
                      A                      A                      A
 Frequencies --   1329.6608              1338.9420              1345.4925
 Red. masses --      2.8834                 1.1122                 1.3388
 Frc consts  --      3.0035                 1.1748                 1.4280
 IR Inten    --      7.2728                57.4083                 3.8481

                     76                     77                     78
                      A                      A                      A
 Frequencies --   1356.5211              1373.8293              1382.9784
 Red. masses --      1.4348                 1.6429                 1.5863
 Frc consts  --      1.5555                 1.8269                 1.7876
 IR Inten    --      0.9994                 4.2748                 8.5921

                     79                     80                     81
                      A                      A                      A
 Frequencies --   1399.7440              1441.1174              1450.2102
 Red. masses --      1.6438                 1.0809                 1.1917
 Frc consts  --      1.8975                 1.3226                 1.4766
 IR Inten    --      8.4009               521.3380                20.5323

                     82                     83                     84
                      A                      A                      A
 Frequencies --   1477.8023              1485.1266              1490.7034
 Red. masses --      2.0076                 1.0851                 1.0587
 Frc consts  --      2.5832                 1.4101                 1.3861
 IR Inten    --     13.3457                14.3945                13.0975

                     85                     86                     87
                      A                      A                      A
 Frequencies --   1495.6677              1506.6424              1520.6753
 Red. masses --      1.0950                 1.0963                 1.1678
 Frc consts  --      1.4432                 1.4662                 1.5911
 IR Inten    --      5.4879                 6.7710                20.4218

                     88                     89                     90
                      A                      A                      A
 Frequencies --   1536.9175              1564.2066              1634.2441
 Red. masses --      2.1345                 1.1108                 1.0670
 Frc consts  --      2.9707                 1.6014                 1.6791
 IR Inten    --     59.2638              1434.3474                63.0637

                     91                     92                     93
                      A                      A                      A
 Frequencies --   1659.6022              1666.0229              1683.4700
 Red. masses --      1.1104                 3.2952                 1.1656
 Frc consts  --      1.8020                 5.3888                 1.9463
 IR Inten    --     17.5603                78.9750               244.1698

                     94                     95                     96
                      A                      A                      A
 Frequencies --   1693.8216              1705.4755              1761.0664
 Red. masses --      1.0824                 4.4987                 1.0992
 Frc consts  --      1.8297                 7.7096                 2.0085
 IR Inten    --     25.7635                47.5729               426.0978

                     97                     98                     99
                      A                      A                      A
 Frequencies --   1822.5866              2982.5326              2998.9255
 Red. masses --      1.1508                 1.0746                 1.0671
 Frc consts  --      2.2522                 5.6322                 5.6544
 IR Inten    --    178.3812              1688.3256               109.3659

                    100                    101                    102
                      A                      A                      A
 Frequencies --   3007.9835              3018.5411              3086.7666
 Red. masses --      1.0700                 1.0736                 1.0654
 Frc consts  --      5.7042                 5.7636                 5.9812
 IR Inten    --     43.3426               386.6520                 4.8513

                    103                    104                    105
                      A                      A                      A
 Frequencies --   3098.6491              3105.6636              3115.8326
 Red. masses --      1.0630                 1.0899                 1.0942
 Frc consts  --      6.0137                 6.1935                 6.2591
 IR Inten    --     23.4227                 7.6010                18.1192

                    106                    107                    108
                      A                      A                      A
 Frequencies --   3143.8650              3144.3223              3146.1595
 Red. masses --      1.1029                 1.1030                 1.0849
 Frc consts  --      6.4229                 6.4253                 6.3272
 IR Inten    --    105.0744                72.8607              1162.2870

                    109                    110                    111
                      A                      A                      A
 Frequencies --   3160.0957              3170.3800              3207.3354
 Red. masses --      1.1046                 1.0478                 1.0921
 Frc consts  --      6.4990                 6.2048                 6.6193
 IR Inten    --      9.8653               313.1382                 1.4547

                    112                    113                    114
                      A                      A                      A
 Frequencies --   3221.1925              3231.9003              3248.1807
 Red. masses --      1.0929                 1.0919                 1.0998
 Frc consts  --      6.6816                 6.7197                 6.8368
 IR Inten    --      2.5282                 0.2538                 0.1352

                    115                    116                    117
                      A                      A                      A
 Frequencies --   3509.5261              3631.1421              3925.4531
 Red. masses --      1.0625                 1.0600                 1.0663
 Frc consts  --      7.7107                 8.2346                 9.6804
 IR Inten    --    624.2638               397.2583                90.0530

                    118                    119                    120
                      A                      A                      A
 Frequencies --   3939.7377              3940.1600              3944.5920
 Red. masses --      1.0684                 1.0667                 1.0702
 Frc consts  --      9.7701                 9.7568                 9.8112
 IR Inten    --     90.2063               132.6166               130.2735

 - Thermochemistry -
 -------------------
 Temperature   298.150 Kelvin.  Pressure   1.00000 Atm.
 Atom     1 has atomic number  7 and mass  14.00307

 Molecular mass:   253.17635 amu.
 Principal axes and moments of inertia in atomic units:
                           1         2         3
     Eigenvalues --  4195.936955020.663936816.63157
           X            0.99995  -0.00616   0.00834
           Y            0.00607   0.99992   0.01102
           Z           -0.00841  -0.01097   0.99990
 This molecule is an asymmetric top.
 Rotational symmetry number  1.
 Warning -- assumption of classical behavior for rotation
           may cause significant error
 Rotational temperatures (Kelvin)      0.02064     0.01725     0.01271
 Rotational constants (GHZ):           0.43012     0.35946     0.26476
    1 imaginary frequencies ignored.
 Zero-point vibrational energy     953783.1 (Joules/Mol)
                                  227.95964 (Kcal/Mol)
 Warning -- explicit consideration of  34 degrees of freedom as
           vibrations may cause significant error
 Vibrational temperatures:     30.84    60.94    70.43    80.85    86.58
          (Kelvin)            105.42   122.33   146.55   165.94   174.75
                              200.17   235.90   273.14   303.21   336.21
                              340.75   373.07   380.47   382.54   386.61
                              460.77   476.22   480.00   491.36   546.12
                              560.20   595.82   605.25   616.00   719.95
                              769.44   799.06   805.22   840.06   897.25
                              920.42   926.27   951.75   998.05  1045.19
                             1065.15  1121.49  1168.58  1193.22  1206.77
                             1256.95  1306.31  1312.50  1353.94  1367.94
                             1386.33  1395.28  1415.69  1433.52  1479.25
                             1526.99  1535.89  1550.84  1561.59  1594.35
                             1612.02  1644.28  1663.55  1694.21  1746.48
                             1769.01  1781.04  1812.41  1820.08  1832.87
                             1891.32  1913.09  1926.44  1935.86  1951.73
                             1976.63  1989.80  2013.92  2073.45  2086.53
                             2126.23  2136.77  2144.79  2151.93  2167.72
                             2187.91  2211.28  2250.54  2351.31  2387.80
                             2397.04  2422.14  2437.03  2453.80  2533.78
                             2622.30  4291.20  4314.78  4327.82  4343.01
                             4441.17  4458.26  4468.36  4482.99  4523.32
                             4523.98  4526.62  4546.67  4561.47  4614.64
                             4634.58  4649.98  4673.41  5049.43  5224.40
                             5647.85  5668.40  5669.01  5675.39

 Zero-point correction=                           0.363277 (Hartree/Particle)
 Thermal correction to Energy=                    0.385358
 Thermal correction to Enthalpy=                  0.386302
 Thermal correction to Gibbs Free Energy=         0.311923
 Sum of electronic and zero-point Energies=           -881.096323
 Sum of electronic and thermal Energies=              -881.074241
 Sum of electronic and thermal Enthalpies=            -881.073297
 Sum of electronic and thermal Free Energies=         -881.147677

                     E (Thermal)             CV                S
                      KCal/Mol        Cal/Mol-Kelvin    Cal/Mol-Kelvin
 Total                  241.816             81.631            156.545
 Electronic               0.000              0.000              0.000
 Translational            0.889              2.981             42.487
 Rotational               0.889              2.981             33.329
 Vibrational            240.039             75.669             80.730
 Vibration     1          0.593              1.985              6.497
 Vibration     2          0.595              1.980              5.146
 Vibration     3          0.595              1.978              4.859
 Vibration     4          0.596              1.975              4.587
 Vibration     5          0.597              1.973              4.451
 Vibration     6          0.599              1.967              4.063
 Vibration     7          0.601              1.960              3.771
 Vibration     8          0.604              1.948              3.418
 Vibration     9          0.608              1.937              3.177
 Vibration    10          0.609              1.931              3.077
 Vibration    11          0.615              1.914              2.816
 Vibration    12          0.623              1.887              2.504
 Vibration    13          0.633              1.854              2.229
 Vibration    14          0.643              1.824              2.037
 Vibration    15          0.654              1.789              1.851
 Vibration    16          0.656              1.784              1.827
 Vibration    17          0.668              1.747              1.667
 Vibration    18          0.671              1.738              1.632
 Vibration    19          0.672              1.736              1.623
 Vibration    20          0.673              1.731              1.604
 Vibration    21          0.706              1.635              1.309
 Vibration    22          0.713              1.614              1.255
 Vibration    23          0.715              1.608              1.243
 Vibration    24          0.721              1.592              1.205
 Vibration    25          0.750              1.514              1.041
 Vibration    26          0.757              1.493              1.003
 Vibration    27          0.778              1.440              0.912
 Vibration    28          0.783              1.425              0.890
 Vibration    29          0.790              1.409              0.865
 Vibration    30          0.856              1.249              0.657
 Vibration    31          0.890              1.173              0.577
 Vibration    32          0.911              1.128              0.533
 Vibration    33          0.915              1.119              0.525
 Vibration    34          0.941              1.066              0.478

 Normal termination of Gaussian 16 at Sun May 21 14:20:13 2023.

 ----------------------------------------------------------------------
 #N Geom=AllCheck Guess=TCheck SCRF=Check GenChk RwB97XD/Aug-CC-pVDZ Fr
 eq
 ----------------------------------------------------------------------

 Structure from the checkpoint file:  "/gscratch/scrubbed/gds001/Gau-27647.chk"
 ----
 blah
 ----
 Charge =  1 Multiplicity = 1

                         Standard orientation:
 ---------------------------------------------------------------------
 Center     Atomic      Atomic             Coordinates (Angstroms)
 Number     Number       Type             X           Y           Z
 ---------------------------------------------------------------------
      1          7           0        2.249332   -0.551973    0.448651
      2          6           0        1.953276    0.178642   -0.805948
      3          6           0        1.497577   -0.913208   -1.810969
      4          6           0        1.652966   -2.244180   -1.052005
      5          6           0        2.660813   -1.901537    0.035920
      6          6           0        0.945802    1.274345   -0.545767
      7          6           0       -0.365599    0.940437   -0.227902
      8          7           0       -1.288505    1.852742    0.078722
      9          6           0       -0.980752    3.156925    0.070220
     10          6           0        0.295266    3.584546   -0.258914
     11          6           0        1.267470    2.630136   -0.563849
     12          8           0       -3.284798    0.551185    0.665141
     13          8           0        0.201152   -0.824636    2.267768
     14          1           0        2.636113   -2.581800    0.896150
     15          1           0        1.994744   -3.058708   -1.698365
     16          1           0        0.698352   -2.545700   -0.602298
     17          1           0        2.146016   -0.884635   -2.693302
     18          1           0        0.472596   -0.753624   -2.162998
     19          1           0        3.690842   -1.891367   -0.365951
     20          1           0        2.880688    0.649775   -1.175582
     21          1           0       -0.699869   -0.095885   -0.216714
     22          1           0       -1.778404    3.849849    0.331329
     23          1           0        0.526132    4.647494   -0.268016
     24          1           0        2.280859    2.945442   -0.814707
     25          6           0        3.231613    0.132178    1.283118
     26          1           0       -2.387346    1.334516    0.407383
     27          1           0        0.925261   -0.750479    1.581852
     28          1           0        0.602087   -1.119782    3.088170
     29          1           0       -2.759357   -0.499075    1.286843
     30          1           0       -4.037210    0.947224    1.111685
     31          8           0       -2.246398   -1.398713    1.676716
     32          1           0       -2.188333   -2.065632    0.933079
     33          1           0       -1.304057   -1.190057    1.957098
     34          1           0        3.420603   -0.457394    2.188542
     35          1           0        2.844828    1.112493    1.588950
     36          1           0        4.190762    0.275191    0.755267
     37          8           0       -1.973013   -2.811653   -0.485760
     38          1           0       -2.389432   -2.205228   -1.135745
     39          1           0       -2.312447   -3.693475   -0.656853
     40          8           0       -2.972485   -0.683500   -1.775492
     41          1           0       -3.357838   -0.178096   -1.035406
     42          1           0       -3.567648   -0.587596   -2.522441
 ---------------------------------------------------------------------

 SCF Done:  E(RwB97XD) =  -881.459599618     A.U. after    1 cycles
