 Gaussian 16, Revision A.03,
 Gaussian 16:  ES64L-G16RevA.03 25-Dec-2016

 ----------------------------------------------------------------
 # wB97XD/aug-cc-pVDZ opt=(TS,CalcAll,MaxStep=5,NoEigenTest) freq
 ----------------------------------------------------------------

 ----
 blah
 ----
 Symbolic Z-matrix:
 Charge =  1 Multiplicity = 1

 SCF Done:  E(RwB97XD) =  -881.462762278     A.U. after   14 cycles
 SCF Done:  E(RwB97XD) =  -881.462762397     A.U. after    8 cycles
 Optimization completed.
    -- Stationary point found.
 ******    1 imaginary frequencies (negative Signs) ******
    1 imaginary frequencies ignored.
 Normal termination of Gaussian 16 at Sat May 20 17:53:53 2023.

 ----------------------------------------------------------------------
 #N Geom=AllCheck Guess=TCheck SCRF=Check GenChk RwB97XD/Aug-CC-pVDZ Fr
 eq
 ----------------------------------------------------------------------

 Structure from the checkpoint file:  "/gscratch/scrubbed/gds001/Gau-17345.chk"
 ----
 blah
 ----
 Charge =  1 Multiplicity = 1

                         Standard orientation:
 ---------------------------------------------------------------------
 Center     Atomic      Atomic             Coordinates (Angstroms)
 Number     Number       Type             X           Y           Z
 ---------------------------------------------------------------------
      1          7           0        2.116330   -0.776832    0.425143
      2          6           0        1.816745   -0.038409   -0.837357
      3          6           0        1.143340   -1.088165   -1.756855
      4          6           0        1.307877   -2.436789   -1.026716
      5          6           0        2.401944   -2.160483   -0.003382
      6          6           0        1.020749    1.214082   -0.557835
      7          6           0       -0.325501    1.131113   -0.209797
      8          7           0       -1.080423    2.182117    0.110127
      9          6           0       -0.520810    3.397691    0.077651
     10          6           0        0.808137    3.596130   -0.278440
     11          6           0        1.588791    2.486287   -0.595386
     12          8           0       -3.313257    0.882837    0.725777
     13          8           0        0.245519   -0.872740    2.127552
     14          1           0        2.383937   -2.830746    0.864393
     15          1           0        1.576341   -3.253485   -1.703753
     16          1           0        0.374413   -2.713986   -0.521941
     17          1           0        1.647588   -1.092496   -2.728851
     18          1           0        0.090378   -0.856512   -1.945718
     19          1           0        3.404100   -2.211227   -0.460908
     20          1           0        2.781571    0.260393   -1.278422
     21          1           0       -0.828158    0.163786   -0.195191
     22          1           0       -1.162749    4.237442    0.342910
     23          1           0        1.222423    4.602073   -0.302854
     24          1           0        2.636175    2.612703   -0.872859
     25          6           0        3.202855   -0.167151    1.196316
     26          1           0       -2.596768    1.565845    0.560021
     27          1           0        1.027663   -0.838440    1.349522
     28          1           0        0.571325   -1.259754    2.943621
     29          1           0       -2.581887   -0.452458    1.469903
     30          1           0       -4.056139    1.327195    1.142034
     31          8           0       -2.082781   -1.274635    1.710471
     32          1           0       -2.197220   -1.922296    0.955774
     33          1           0       -0.969903   -1.084588    1.908574
     34          1           0        3.392641   -0.765363    2.095284
     35          1           0        2.912576    0.843491    1.505418
     36          1           0        4.130300   -0.115324    0.605339
     37          8           0       -2.248353   -2.726037   -0.436551
     38          1           0       -2.612320   -2.068047   -1.067100
     39          1           0       -2.762407   -3.531185   -0.535869
     40          8           0       -3.027288   -0.491883   -1.685866
     41          1           0       -3.366877    0.081425   -0.976619
     42          1           0       -3.523840   -0.281629   -2.479847
 ---------------------------------------------------------------------

 SCF Done:  E(RwB97XD) =  -881.462762397     A.U. after    1 cycles

 The electronic state is 1-A.
 Alpha  occ. eigenvalues --  -19.42797 -19.40555 -19.40185 -19.40031 -19.39682
 Alpha  occ. eigenvalues --  -14.60283 -14.58623 -10.46147 -10.46042 -10.45875
 Alpha  occ. eigenvalues --  -10.44298 -10.44237 -10.44137 -10.43847 -10.42920
 Alpha  occ. eigenvalues --  -10.41149 -10.40684  -1.29055  -1.25060  -1.24576
 Alpha  occ. eigenvalues --   -1.23929  -1.23096  -1.18659  -1.17807  -1.04399
 Alpha  occ. eigenvalues --   -1.01394  -0.99961  -0.94437  -0.90172  -0.85955
 Alpha  occ. eigenvalues --   -0.84908  -0.81341  -0.79963  -0.78856  -0.78123
 Alpha  occ. eigenvalues --   -0.77241  -0.76011  -0.75253  -0.74405  -0.72870
 Alpha  occ. eigenvalues --   -0.71505  -0.70285  -0.69318  -0.66689  -0.66061
 Alpha  occ. eigenvalues --   -0.65199  -0.64104  -0.62685  -0.62224  -0.62023
 Alpha  occ. eigenvalues --   -0.61695  -0.60436  -0.60006  -0.59365  -0.59292
 Alpha  occ. eigenvalues --   -0.57488  -0.57268  -0.56280  -0.54824  -0.54610
 Alpha  occ. eigenvalues --   -0.54266  -0.54186  -0.53891  -0.53058  -0.52048
 Alpha  occ. eigenvalues --   -0.49214  -0.48491  -0.46898  -0.45822
 Alpha virt. eigenvalues --   -0.09002  -0.07701  -0.06502  -0.05416  -0.04723
 Alpha virt. eigenvalues --   -0.04608  -0.03438  -0.03243  -0.02864  -0.02521
 Alpha virt. eigenvalues --   -0.01980  -0.01292  -0.00887  -0.00700  -0.00372

 Mulliken charges:
               1
     1  N   -1.789321
     2  C    0.886835
     3  C    1.201812
     4  C    1.072568
     5  C    1.412303
     6  C    1.464746
     7  C    1.003107
     8  N   -0.398859
     9  C    0.190305
    10  C    0.527746
    11  C    0.962235
    12  O   -0.854511
    13  O   -0.588235
    14  H   -0.502927
    15  H   -0.381646
    16  H   -0.325502
    17  H   -0.472407
    18  H   -0.568636
    19  H   -0.437063
    20  H   -0.769567
    21  H   -1.349609
    22  H   -0.657787
    23  H   -0.620815
    24  H   -0.906202
    25  C    1.055431
    26  H    0.443825
    27  H    0.754455
    28  H    0.178438
    29  H    0.418236
    30  H    0.308921
    31  O   -0.714516
    32  H    0.448728
    33  H    0.632264
    34  H   -0.191366
    35  H   -0.148396
    36  H   -0.197271
    37  O   -0.576821
    38  H    0.335838
    39  H    0.215778
    40  O   -0.505831
    41  H    0.210405
    42  H    0.233315
 Sum of Mulliken charges =   1.00000

 Dipole moment (field-independent basis, Debye):
    X=             -0.9614    Y=             -0.2620    Z=              0.3685  Tot=              1.0624
 Quadrupole moment (field-independent basis, Debye-Ang):
   XX=            -57.0967   YY=            -70.7325   ZZ=            -90.0704
   XY=             -0.1798   XZ=              4.5151   YZ=              0.2848

  Exact polarizability: 180.966  -4.027 191.837  -4.896   3.902 139.715
 Approx polarizability: 195.391  -0.780 200.315  -9.684   3.493 160.258

 ******    1 imaginary frequencies (negative Signs) ******

                      1                      2                      3
                      A                      A                      A
 Frequencies --   -648.5703                26.8291                33.6505
 Red. masses --      1.2710                 4.4830                 4.3643
 Frc consts  --      0.3150                 0.0019                 0.0029
 IR Inten    --   3043.9586                 0.0702                 2.1814

                      4                      5                      6
                      A                      A                      A
 Frequencies --     54.1157                60.4313                66.0530
 Red. masses --      4.2208                 3.4927                 5.0883
 Frc consts  --      0.0073                 0.0075                 0.0131
 IR Inten    --      0.6975                 0.1166                 0.3099

                      7                      8                      9
                      A                      A                      A
 Frequencies --     71.9931                87.5072               106.8002
 Red. masses --      5.0263                 4.6582                 4.5857
 Frc consts  --      0.0153                 0.0210                 0.0308
 IR Inten    --      1.5377                 1.3751                 0.1428

                     10                     11                     12
                      A                      A                      A
 Frequencies --    112.6791               117.7548               139.4498
 Red. masses --      4.0371                 5.6272                 3.5939
 Frc consts  --      0.0302                 0.0460                 0.0412
 IR Inten    --      1.7827                 0.0613                 2.4755

                     13                     14                     15
                      A                      A                      A
 Frequencies --    185.7457               205.5339               213.2782
 Red. masses --      5.0216                 2.4138                 2.4340
 Frc consts  --      0.1021                 0.0601                 0.0652
 IR Inten    --      4.8891                 1.7383                 3.7016

                     16                     17                     18
                      A                      A                      A
 Frequencies --    227.4616               235.8458               253.7848
 Red. masses --      2.0933                 1.6402                 2.1148
 Frc consts  --      0.0638                 0.0538                 0.0803
 IR Inten    --     23.1810               100.4312                52.1809

                     19                     20                     21
                      A                      A                      A
 Frequencies --    259.4445               265.1720               268.3748
 Red. masses --      1.2238                 3.4954                 1.8412
 Frc consts  --      0.0485                 0.1448                 0.0781
 IR Inten    --      4.6588                25.9534                27.2418

                     22                     23                     24
                      A                      A                      A
 Frequencies --    271.0550               299.1117               335.7795
 Red. masses --      3.7471                 3.1582                 1.6780
 Frc consts  --      0.1622                 0.1665                 0.1115
 IR Inten    --     23.2109                52.2316                19.3429

                     25                     26                     27
                      A                      A                      A
 Frequencies --    337.3590               358.8711               368.1865
 Red. masses --      1.9036                 3.2057                 1.0800
 Frc consts  --      0.1276                 0.2432                 0.0863
 IR Inten    --     79.0729                84.1309                19.9747

                     28                     29                     30
                      A                      A                      A
 Frequencies --    395.3593               422.8348               473.8091
 Red. masses --      2.8053                 3.1902                 1.1137
 Frc consts  --      0.2584                 0.3361                 0.1473
 IR Inten    --     21.6752                 0.6280               130.0236

                     31                     32                     33
                      A                      A                      A
 Frequencies --    506.1631               530.9492               558.0958
 Red. masses --      1.1146                 2.9772                 1.1596
 Frc consts  --      0.1682                 0.4945                 0.2128
 IR Inten    --     73.6601                53.9033                26.3893

                     34                     35                     36
                      A                      A                      A
 Frequencies --    574.4769               580.1989               628.4486
 Red. masses --      2.8418                 2.9219                 2.7068
 Frc consts  --      0.5526                 0.5795                 0.6299
 IR Inten    --     70.3640                 4.1154                92.2579

                     37                     38                     39
                      A                      A                      A
 Frequencies --    644.9005               660.6712               669.5354
 Red. masses --      4.2603                 4.9573                 1.1357
 Frc consts  --      1.0439                 1.2749                 0.2999
 IR Inten    --     32.4226                 5.6890               121.6578

                     40                     41                     42
                      A                      A                      A
 Frequencies --    686.2970               738.1737               748.6219
 Red. masses --      3.2963                 1.8588                 1.0546
 Frc consts  --      0.9147                 0.5968                 0.3482
 IR Inten    --    246.6569                27.3089                48.5781

                     43                     44                     45
                      A                      A                      A
 Frequencies --    786.7471               824.3909               837.2187
 Red. masses --      1.6308                 1.3754                 1.6012
 Frc consts  --      0.5947                 0.5507                 0.6613
 IR Inten    --    111.1804               274.5165               112.5504

                     46                     47                     48
                      A                      A                      A
 Frequencies --    844.0903               859.3684               906.1558
 Red. masses --      1.1101                 1.9494                 1.0700
 Frc consts  --      0.4660                 0.8482                 0.5177
 IR Inten    --    200.2027                23.1395               159.4521

                     49                     50                     51
                      A                      A                      A
 Frequencies --    928.1410               941.8807               958.1725
 Red. masses --      1.8270                 2.4216                 1.8010
 Frc consts  --      0.9273                 1.2658                 0.9742
 IR Inten    --      5.0303               113.0545                53.2801

                     52                     53                     54
                      A                      A                      A
 Frequencies --    974.9421               983.1957               991.0662
 Red. masses --      1.4932                 1.4056                 1.3280
 Frc consts  --      0.8362                 0.8006                 0.7685
 IR Inten    --     63.3472                58.2231               138.4379

                     55                     56                     57
                      A                      A                      A
 Frequencies --   1001.7912              1027.7064              1052.9700
 Red. masses --      1.6654                 1.4145                 1.3862
 Frc consts  --      0.9847                 0.8802                 0.9056
 IR Inten    --     44.5892                 2.4226               262.9051

                     58                     59                     60
                      A                      A                      A
 Frequencies --   1058.7009              1061.3344              1074.0118
 Red. masses --      2.1125                 2.1872                 2.3317
 Frc consts  --      1.3951                 1.4516                 1.5847
 IR Inten    --     22.9831                36.2251                 2.2198

                     61                     62                     63
                      A                      A                      A
 Frequencies --   1096.9319              1101.6907              1136.7836
 Red. masses --      1.9341                 2.1052                 1.2622
 Frc consts  --      1.3712                 1.5054                 0.9610
 IR Inten    --      5.6600                18.0586                 8.9825

                     64                     65                     66
                      A                      A                      A
 Frequencies --   1153.1898              1173.2941              1214.5904
 Red. masses --      1.3966                 2.1654                 1.7441
 Frc consts  --      1.0943                 1.7563                 1.5159
 IR Inten    --      9.1752                 6.4745                23.3563

                     67                     68                     69
                      A                      A                      A
 Frequencies --   1220.9622              1242.5360              1254.3533
 Red. masses --      1.6220                 1.4067                 1.8238
 Frc consts  --      1.4246                 1.2796                 1.6907
 IR Inten    --      4.5487                29.8779                 2.7234

                     70                     71                     72
                      A                      A                      A
 Frequencies --   1260.2183              1274.4715              1313.2996
 Red. masses --      1.6941                 1.2618                 1.8942
 Frc consts  --      1.5852                 1.2075                 1.9249
 IR Inten    --      4.7079                10.1808                 2.2446

                     73                     74                     75
                      A                      A                      A
 Frequencies --   1316.9485              1334.2331              1346.1762
 Red. masses --      1.9022                 1.3473                 1.2763
 Frc consts  --      1.9437                 1.4132                 1.3627
 IR Inten    --     10.8856                59.7796                 6.1299

                     76                     77                     78
                      A                      A                      A
 Frequencies --   1367.2393              1370.9641              1383.0840
 Red. masses --      1.3892                 1.4602                 1.4221
 Frc consts  --      1.5300                 1.6171                 1.6027
 IR Inten    --     23.1674                12.2817                75.2919

                     79                     80                     81
                      A                      A                      A
 Frequencies --   1402.3085              1426.5817              1466.8159
 Red. masses --      1.6061                 1.1383                 1.1238
 Frc consts  --      1.8608                 1.3648                 1.4246
 IR Inten    --     15.7256                96.1468                 5.8116

                     82                     83                     84
                      A                      A                      A
 Frequencies --   1481.4109              1487.7645              1490.7089
 Red. masses --      2.1991                 1.0759                 1.0530
 Frc consts  --      2.8435                 1.4031                 1.3787
 IR Inten    --     24.5268                14.4495                 8.6236

                     85                     86                     87
                      A                      A                      A
 Frequencies --   1496.3848              1507.9706              1522.0861
 Red. masses --      1.0913                 1.0998                 1.2177
 Frc consts  --      1.4398                 1.4735                 1.6622
 IR Inten    --      7.2683                20.9874                15.1739

                     88                     89                     90
                      A                      A                      A
 Frequencies --   1535.2022              1589.1887              1625.7140
 Red. masses --      1.9730                 1.0485                 1.0772
 Frc consts  --      2.7397                 1.5602                 1.6774
 IR Inten    --      5.2720                54.0955               156.3217

                     91                     92                     93
                      A                      A                      A
 Frequencies --   1654.3683              1661.1650              1676.9575
 Red. masses --      1.2309                 2.0095                 1.1756
 Frc consts  --      1.9849                 3.2671                 1.9478
 IR Inten    --     46.5128                79.3012              1088.5809

                     94                     95                     96
                      A                      A                      A
 Frequencies --   1682.4437              1691.8829              1755.5468
 Red. masses --      1.5641                 3.7246                 1.0599
 Frc consts  --      2.6085                 6.2815                 1.9246
 IR Inten    --      6.8693                60.0780                51.2483

                     97                     98                     99
                      A                      A                      A
 Frequencies --   1787.3622              3030.6028              3033.7510
 Red. masses --      1.0611                 1.0686                 1.0711
 Frc consts  --      1.9973                 5.7828                 5.8081
 IR Inten    --    373.2380                14.3658                23.7042

                    100                    101                    102
                      A                      A                      A
 Frequencies --   3036.8394              3039.0528              3092.2150
 Red. masses --      1.0537                 1.0733                 1.0655
 Frc consts  --      5.7254                 5.8406                 6.0029
 IR Inten    --    288.7414              1629.1571                 8.4167

                    103                    104                    105
                      A                      A                      A
 Frequencies --   3104.8504              3124.2908              3127.1476
 Red. masses --      1.0632                 1.0979                 1.0961
 Frc consts  --      6.0387                 6.3141                 6.3152
 IR Inten    --     13.6063                19.7881                29.6522

                    106                    107                    108
                      A                      A                      A
 Frequencies --   3129.5806              3149.4515              3157.2034
 Red. masses --      1.0762                 1.1048                 1.1050
 Frc consts  --      6.2101                 6.4568                 6.4896
 IR Inten    --    935.9425                 3.5698                 9.8461

                    109                    110                    111
                      A                      A                      A
 Frequencies --   3164.6672              3200.7723              3206.5579
 Red. masses --      1.1050                 1.0916                 1.0900
 Frc consts  --      6.5202                 6.5892                 6.6032
 IR Inten    --     23.8822                 2.0228                13.2167

                    112                    113                    114
                      A                      A                      A
 Frequencies --   3215.0502              3238.8677              3329.4489
 Red. masses --      1.0924                 1.0987                 1.0632
 Frc consts  --      6.6528                 6.7905                 6.9439
 IR Inten    --      3.9493                 1.1956               651.2966

                    115                    116                    117
                      A                      A                      A
 Frequencies --   3521.6778              3675.9822              3926.6158
 Red. masses --      1.0627                 1.0586                 1.0662
 Frc consts  --      7.7651                 8.4282                 9.6853
 IR Inten    --    714.9329               354.3613                91.0903

                    118                    119                    120
                      A                      A                      A
 Frequencies --   3930.1750              3937.5046              3948.7424
 Red. masses --      1.0663                 1.0685                 1.0712
 Frc consts  --      9.7039                 9.7601                 9.8413
 IR Inten    --    131.3511               127.6339               132.7938

 - Thermochemistry -
 -------------------
 Temperature   298.150 Kelvin.  Pressure   1.00000 Atm.
 Atom     1 has atomic number  7 and mass  14.00307

 Molecular mass:   253.17635 amu.
 Principal axes and moments of inertia in atomic units:
                           1         2         3
     Eigenvalues --  4344.522074808.517446893.77587
           X            0.99961  -0.02678   0.00826
           Y            0.02671   0.99961   0.00831
           Z           -0.00848  -0.00809   0.99993
 This molecule is an asymmetric top.
 Rotational symmetry number  1.
 Warning -- assumption of classical behavior for rotation
           may cause significant error
 Rotational temperatures (Kelvin)      0.01994     0.01801     0.01256
 Rotational constants (GHZ):           0.41541     0.37532     0.26179
    1 imaginary frequencies ignored.
 Zero-point vibrational energy     955317.2 (Joules/Mol)
                                  228.32629 (Kcal/Mol)
 Warning -- explicit consideration of  34 degrees of freedom as
           vibrations may cause significant error
 Vibrational temperatures:     38.60    48.42    77.86    86.95    95.04
          (Kelvin)            103.58   125.90   153.66   162.12   169.42
                              200.64   267.25   295.72   306.86   327.27
                              339.33   365.14   373.28   381.52   386.13
                              389.99   430.36   483.11   485.38   516.34
                              529.74   568.83   608.37   681.71   728.26
                              763.92   802.98   826.54   834.78   904.20
                              927.87   950.56   963.31   987.43  1062.07
                             1077.10  1131.95  1186.11  1204.57  1214.46
                             1236.44  1303.76  1335.39  1355.16  1378.60
                             1402.72  1414.60  1425.92  1441.35  1478.64
                             1514.99  1523.23  1527.02  1545.26  1578.24
                             1585.09  1635.58  1659.18  1688.11  1747.52
                             1756.69  1787.73  1804.73  1813.17  1833.68
                             1889.55  1894.80  1919.66  1936.85  1967.15
                             1972.51  1989.95  2017.61  2052.53  2110.42
                             2131.42  2140.56  2144.80  2152.96  2169.63
                             2189.94  2208.81  2286.49  2339.04  2380.27
                             2390.05  2412.77  2420.66  2434.24  2525.84
                             2571.62  4360.36  4364.89  4369.33  4372.52
                             4449.01  4467.19  4495.16  4499.27  4502.77
                             4531.36  4542.51  4553.25  4605.20  4613.52
                             4625.74  4660.01  4790.33  5066.91  5288.92
                             5649.52  5654.65  5665.19  5681.36

 Zero-point correction=                           0.363861 (Hartree/Particle)
 Thermal correction to Energy=                    0.385967
 Thermal correction to Enthalpy=                  0.386911
 Thermal correction to Gibbs Free Energy=         0.312700
 Sum of electronic and zero-point Energies=           -881.098901
 Sum of electronic and thermal Energies=              -881.076796
 Sum of electronic and thermal Enthalpies=            -881.075851
 Sum of electronic and thermal Free Energies=         -881.150062

                     E (Thermal)             CV                S
                      KCal/Mol        Cal/Mol-Kelvin    Cal/Mol-Kelvin
 Total                  242.198             81.646            156.190
 Electronic               0.000              0.000              0.000
 Translational            0.889              2.981             42.487
 Rotational               0.889              2.981             33.332
 Vibrational            240.420             75.685             80.372
 Vibration     1          0.593              1.984              6.051
 Vibration     2          0.594              1.983              5.602
 Vibration     3          0.596              1.976              4.661
 Vibration     4          0.597              1.973              4.443
 Vibration     5          0.597              1.970              4.268
 Vibration     6          0.598              1.967              4.098
 Vibration     7          0.601              1.958              3.715
 Vibration     8          0.606              1.944              3.326
 Vibration     9          0.607              1.939              3.222
 Vibration    10          0.608              1.935              3.137
 Vibration    11          0.615              1.914              2.811
 Vibration    12          0.632              1.859              2.270
 Vibration    13          0.640              1.832              2.083
 Vibration    14          0.644              1.821              2.015
 Vibration    15          0.651              1.799              1.899
 Vibration    16          0.655              1.786              1.834
 Vibration    17          0.665              1.756              1.704
 Vibration    18          0.668              1.747              1.666
 Vibration    19          0.671              1.737              1.627
 Vibration    20          0.673              1.731              1.607
 Vibration    21          0.675              1.727              1.589
 Vibration    22          0.692              1.675              1.422
 Vibration    23          0.717              1.604              1.232
 Vibration    24          0.718              1.601              1.225
 Vibration    25          0.734              1.557              1.127
 Vibration    26          0.741              1.538              1.087
 Vibration    27          0.762              1.480              0.980
 Vibration    28          0.785              1.421              0.882
 Vibration    29          0.831              1.308              0.727
 Vibration    30          0.861              1.236              0.643
 Vibration    31          0.886              1.182              0.585
 Vibration    32          0.914              1.122              0.528
 Vibration    33          0.931              1.086              0.496
 Vibration    34          0.937              1.074              0.485

 Optimization completed.
    -- Stationary point found.
 Normal termination of Gaussian 16 at Sat May 20 19:31:29 2023.
