 Gaussian 16, Revision A.03,
 Gaussian 16:  ES64L-G16RevA.03 25-Dec-2016

 ---------------------------------------------
 # wB97XD/aug-cc-pVDZ opt freq temperature=180
 ---------------------------------------------

 --------
 Nicotine
 --------
 Symbolic Z-matrix:
 Charge =  1 Multiplicity = 1

 SCF Done:  E(RwB97XD) =  -652.152837584     A.U. after   14 cycles
 SCF Done:  E(RwB97XD) =  -652.152822809     A.U. after   11 cycles
 SCF Done:  E(RwB97XD) =  -652.152822330     A.U. after   12 cycles
 SCF Done:  E(RwB97XD) =  -652.152836541     A.U. after   12 cycles
 SCF Done:  E(RwB97XD) =  -652.152837806     A.U. after   10 cycles
 SCF Done:  E(RwB97XD) =  -652.152837905     A.U. after    9 cycles
 Optimization completed.
    -- Stationary point found.
 Normal termination of Gaussian 16 at Sun Nov 14 16:17:15 2021.

 ----------------------------------------------------------------------
 #N Geom=AllCheck Guess=TCheck SCRF=Check GenChk RwB97XD/Aug-CC-pVDZ Fr
 eq
 ----------------------------------------------------------------------

 Structure from the checkpoint file:  "/gscratch/scrubbed/gds001/Gau-19986.chk"
 --------
 Nicotine
 --------
 Charge =  1 Multiplicity = 1

                         Standard orientation:
 ---------------------------------------------------------------------
 Center     Atomic      Atomic             Coordinates (Angstroms)
 Number     Number       Type             X           Y           Z
 ---------------------------------------------------------------------
      1          6           0        2.626669   -0.834919   -0.347857
      2          6           0        1.387735   -0.189775   -0.357403
      3          6           0        1.372641    1.195003   -0.161816
      4          6           0        2.578803    1.854310    0.032529
      5          6           0        3.759723    1.107568    0.020576
      6          7           0        3.790451   -0.212466   -0.165602
      7          6           0        0.133791   -0.991916   -0.563233
      8          6           0       -0.857442   -0.514241   -1.627635
      9          6           0       -2.229308   -1.088426   -1.198711
     10          6           0       -2.010591   -1.658144    0.212117
     11          7           0       -0.733670   -1.035264    0.677191
     12          8           0       -1.763219    1.469289    1.188753
     13          1           0       -1.855811   -2.743280    0.204592
     14          1           0       -2.571227   -1.878838   -1.873650
     15          1           0       -2.993535   -0.305180   -1.186960
     16          1           0       -0.881844    0.581105   -1.648687
     17          1           0       -0.540466   -0.853653   -2.617909
     18          1           0       -2.800807   -1.416565    0.929152
     19          1           0        0.404172   -2.041067   -0.749733
     20          1           0        2.682292   -1.916413   -0.502586
     21          1           0        4.724018    1.596584    0.167899
     22          1           0        2.613396    2.931547    0.186171
     23          1           0        0.434442    1.750962   -0.153306
     24          6           0       -0.116069   -1.693733    1.847285
     25          1           0       -0.973624   -0.054207    0.934352
     26          1           0       -1.665213    2.077197    1.925124
     27          1           0       -2.593191    1.710014    0.731547
     28          8           0       -4.032229    1.932730   -0.268668
     29          1           0       -4.917841    1.876120    0.102409
     30          1           0       -4.071361    2.647871   -0.910846
     31          1           0       -0.830272   -1.686069    2.676090
     32          1           0        0.788984   -1.147022    2.126905
     33          1           0        0.138288   -2.725520    1.582525
 ---------------------------------------------------------------------

 SCF Done:  E(RwB97XD) =  -652.152837905     A.U. after    1 cycles

 The electronic state is 1-A.
 Alpha  occ. eigenvalues --  -19.43418 -19.41886 -14.69378 -14.55997 -10.49582
 Alpha  occ. eigenvalues --  -10.48819 -10.48389 -10.45225 -10.44605 -10.44122
 Alpha  occ. eigenvalues --  -10.44035 -10.43935 -10.43886 -10.42315  -1.27880
 Alpha  occ. eigenvalues --   -1.26420  -1.25321  -1.16316  -1.06120  -1.04081
 Alpha  occ. eigenvalues --   -1.00315  -0.96208  -0.94752  -0.89014  -0.84615
 Alpha  occ. eigenvalues --   -0.84540  -0.82886  -0.77915  -0.77671  -0.77350
 Alpha  occ. eigenvalues --   -0.74904  -0.72253  -0.71878  -0.69727  -0.68921
 Alpha  occ. eigenvalues --   -0.66679  -0.66242  -0.64374  -0.64238  -0.63030
 Alpha  occ. eigenvalues --   -0.62301  -0.61741  -0.60656  -0.60424  -0.58759
 Alpha  occ. eigenvalues --   -0.58385  -0.57976  -0.56481  -0.56045  -0.55381
 Alpha  occ. eigenvalues --   -0.54961  -0.48369  -0.45636  -0.44992
 Alpha virt. eigenvalues --   -0.08633  -0.08254  -0.07097  -0.06322  -0.05717
 Alpha virt. eigenvalues --   -0.05095  -0.03953  -0.03596  -0.03108  -0.03005
 Alpha virt. eigenvalues --   -0.02762  -0.01501  -0.01422  -0.00939  -0.00807

 Mulliken charges:
               1
     1  C    0.228044
     2  C    1.484998
     3  C    1.295130
     4  C    0.449235
     5  C    0.097478
     6  N   -0.330846
     7  C    0.895701
     8  C    0.834511
     9  C    1.067703
    10  C    1.196418
    11  N   -1.100043
    12  O   -0.556133
    13  H   -0.492039
    14  H   -0.224600
    15  H   -0.334973
    16  H   -0.308501
    17  H   -0.473659
    18  H   -0.512239
    19  H   -0.927108
    20  H   -0.728820
    21  H   -0.488137
    22  H   -0.599591
    23  H   -0.979073
    24  C    1.047959
    25  H    0.313626
    26  H    0.238744
    27  H    0.283140
    28  O   -0.511584
    29  H    0.224516
    30  H    0.228749
    31  H   -0.118076
    32  H   -0.100231
    33  H   -0.100298
 Sum of Mulliken charges =   1.00000

 Dipole moment (field-independent basis, Debye):
    X=             -8.4684    Y=              1.0622    Z=              1.7783  Tot=              8.7180
 Quadrupole moment (field-independent basis, Debye-Ang):
   XX=            -50.9190   YY=            -56.4114   ZZ=            -73.4075
   XY=             -5.3559   XZ=              1.1030   YZ=             -0.5296

  Exact polarizability: 169.486   9.694 141.200   4.801   2.033 112.614
 Approx polarizability: 171.442   3.138 165.496   3.936   4.744 128.584

                      1                      2                      3
                      A                      A                      A
 Frequencies --     18.1713                35.8654                55.4627
 Red. masses --      4.4812                 4.3024                 4.1481
 Frc consts  --      0.0009                 0.0033                 0.0075
 IR Inten    --      0.6453                 1.1268                 0.7526

                      4                      5                      6
                      A                      A                      A
 Frequencies --     68.0321                80.6744                91.4004
 Red. masses --      3.7443                 5.5644                 2.7533
 Frc consts  --      0.0102                 0.0213                 0.0136
 IR Inten    --      0.8394                 3.0749                 1.2281

                      7                      8                      9
                      A                      A                      A
 Frequencies --    100.1630               136.2231               185.3186
 Red. masses --      3.0572                 2.1643                 1.8855
 Frc consts  --      0.0181                 0.0237                 0.0382
 IR Inten    --      0.6035                 1.7966                34.7860

                     10                     11                     12
                      A                      A                      A
 Frequencies --    186.7341               221.0754               232.8499
 Red. masses --      1.5593                 2.7284                 1.1498
 Frc consts  --      0.0320                 0.0786                 0.0367
 IR Inten    --     25.9857                 0.7613                 0.4309

                     13                     14                     15
                      A                      A                      A
 Frequencies --    241.2098               255.7848               264.9861
 Red. masses --      1.1233                 2.9067                 4.4896
 Frc consts  --      0.0385                 0.1120                 0.1857
 IR Inten    --     45.7308                 7.1422                 4.4024

                     16                     17                     18
                      A                      A                      A
 Frequencies --    284.4130               319.6800               330.4905
 Red. masses --      1.0489                 4.3567                 1.1815
 Frc consts  --      0.0500                 0.2623                 0.0760
 IR Inten    --     41.7417                 0.4533               197.1862

                     19                     20                     21
                      A                      A                      A
 Frequencies --    383.8204               412.6178               425.7003
 Red. masses --      2.9304                 3.2451                 2.7726
 Frc consts  --      0.2544                 0.3255                 0.2960
 IR Inten    --      0.6450                 4.7895                 6.1102

                     22                     23                     24
                      A                      A                      A
 Frequencies --    507.5518               535.0112               562.7936
 Red. masses --      1.1572                 3.2916                 3.0392
 Frc consts  --      0.1756                 0.5551                 0.5672
 IR Inten    --     56.6913                11.7623                 2.6722

                     25                     26                     27
                      A                      A                      A
 Frequencies --    626.5343               638.8565               687.8498
 Red. masses --      7.0387                 3.2666                 6.0349
 Frc consts  --      1.6279                 0.7855                 1.6823
 IR Inten    --      4.0892                 1.2066                 0.5266

                     28                     29                     30
                      A                      A                      A
 Frequencies --    737.4298               780.5077               791.9499
 Red. masses --      1.9134                 1.0621                 1.3460
 Frc consts  --      0.6131                 0.3812                 0.4974
 IR Inten    --     31.0895                73.9981                 8.8142

                     31                     32                     33
                      A                      A                      A
 Frequencies --    811.9603               834.9773               910.2667
 Red. masses --      1.9645                 1.7406                 3.2697
 Frc consts  --      0.7631                 0.7150                 1.5963
 IR Inten    --     14.0897                14.7381                 8.1208

                     34                     35                     36
                      A                      A                      A
 Frequencies --    930.0615               945.1254               961.9172
 Red. masses --      2.5503                 1.7620                 1.4455
 Frc consts  --      1.2998                 0.9273                 0.7880
 IR Inten    --      7.0780                 2.7352                 0.1343

                     37                     38                     39
                      A                      A                      A
 Frequencies --    987.8730              1001.0540              1029.4945
 Red. masses --      1.8002                 1.5914                 1.4448
 Frc consts  --      1.0351                 0.9396                 0.9022
 IR Inten    --      4.8984                10.7988                 0.2391

                     40                     41                     42
                      A                      A                      A
 Frequencies --   1038.1530              1045.0576              1060.1767
 Red. masses --      1.8439                 4.0375                 2.7798
 Frc consts  --      1.1709                 2.5980                 1.8408
 IR Inten    --     19.5516                 6.8302                 4.8745

                     43                     44                     45
                      A                      A                      A
 Frequencies --   1081.3744              1104.1304              1129.0157
 Red. masses --      2.3259                 2.2438                 1.3992
 Frc consts  --      1.6025                 1.6117                 1.0508
 IR Inten    --      1.5817                 2.4208                 1.7955

                     46                     47                     48
                      A                      A                      A
 Frequencies --   1152.1860              1159.5576              1211.6310
 Red. masses --      2.4905                 1.4464                 1.7423
 Frc consts  --      1.9480                 1.1459                 1.5070
 IR Inten    --     13.1268                 5.3393                 1.3042

                     49                     50                     51
                      A                      A                      A
 Frequencies --   1220.7427              1236.9405              1249.7372
 Red. masses --      1.6928                 1.3120                 1.3411
 Frc consts  --      1.4863                 1.1827                 1.2341
 IR Inten    --      0.2978                 6.2140                13.3499

                     52                     53                     54
                      A                      A                      A
 Frequencies --   1269.7180              1286.1581              1297.4185
 Red. masses --      1.6526                 1.1961                 1.5694
 Frc consts  --      1.5697                 1.1658                 1.5565
 IR Inten    --      2.7572                 4.4075                 2.7392

                     55                     56                     57
                      A                      A                      A
 Frequencies --   1315.9680              1342.4231              1363.3568
 Red. masses --      3.3250                 1.3686                 1.4579
 Frc consts  --      3.3926                 1.4531                 1.5966
 IR Inten    --      4.9720                 0.9861                 8.1770

                     58                     59                     60
                      A                      A                      A
 Frequencies --   1370.3684              1380.2460              1406.9629
 Red. masses --      1.2579                 1.3858                 1.4942
 Frc consts  --      1.3917                 1.5555                 1.7427
 IR Inten    --      0.6626                 0.8858                 6.8065

                     61                     62                     63
                      A                      A                      A
 Frequencies --   1452.9687              1475.5954              1481.4859
 Red. masses --      1.1787                 1.2721                 1.2776
 Frc consts  --      1.4662                 1.6320                 1.6521
 IR Inten    --      2.8906                15.0042                25.5063

                     64                     65                     66
                      A                      A                      A
 Frequencies --   1483.1391              1490.8156              1497.7816
 Red. masses --      1.2254                 1.0973                 1.2069
 Frc consts  --      1.5882                 1.4368                 1.5952
 IR Inten    --      2.1297                30.5807                28.7313

                     67                     68                     69
                      A                      A                      A
 Frequencies --   1505.3415              1520.9642              1528.2570
 Red. masses --      1.0958                 1.1155                 2.3966
 Frc consts  --      1.4631                 1.5204                 3.2979
 IR Inten    --     27.6081                 5.2400                 5.7261

                     70                     71                     72
                      A                      A                      A
 Frequencies --   1566.2860              1632.0669              1652.5483
 Red. masses --      1.1598                 1.0845                 5.7978
 Frc consts  --      1.6763                 1.7019                 9.3288
 IR Inten    --     21.8446               132.9934                14.2538

                     73                     74                     75
                      A                      A                      A
 Frequencies --   1666.6327              1678.0175              3079.0472
 Red. masses --      1.0794                 6.3556                 1.0379
 Frc consts  --      1.7665                10.5439                 5.7975
 IR Inten    --     11.2657                22.3204                26.6550

                     76                     77                     78
                      A                      A                      A
 Frequencies --   3080.5840              3101.6412              3105.5991
 Red. masses --      1.0817                 1.0630                 1.0636
 Frc consts  --      6.0482                 6.0251                 6.0440
 IR Inten    --     16.1459                38.6564                11.0606

                     79                     80                     81
                      A                      A                      A
 Frequencies --   3116.0685              3151.0691              3159.9616
 Red. masses --      1.0634                 1.0845                 1.1053
 Frc consts  --      6.0837                 6.3443                 6.5029
 IR Inten    --      9.0266               563.3547                10.2955

                     82                     83                     84
                      A                      A                      A
 Frequencies --   3161.3152              3170.8179              3180.8019
 Red. masses --      1.0919                 1.1062                 1.1076
 Frc consts  --      6.4296                 6.5530                 6.6026
 IR Inten    --     21.9289                11.2618                 1.4840

                     85                     86                     87
                      A                      A                      A
 Frequencies --   3184.9819              3192.8372              3200.1970
 Red. masses --      1.1050                 1.1074                 1.0903
 Frc consts  --      6.6046                 6.6513                 6.5786
 IR Inten    --     18.0991                 1.3556                 2.9551

                     88                     89                     90
                      A                      A                      A
 Frequencies --   3205.5974              3233.2871              3574.8778
 Red. masses --      1.0925                 1.0981                 1.0612
 Frc consts  --      6.6144                 6.7635                 7.9905
 IR Inten    --      2.6851                 3.2325               725.7561

                     91                     92                     93
                      A                      A                      A
 Frequencies --   3864.0324              3940.7067              3964.3979
 Red. masses --      1.0455                 1.0691                 1.0825
 Frc consts  --      9.1976                 9.7821                10.0236
 IR Inten    --     42.3491               108.9364               116.6216

 - Thermochemistry -
 -------------------
 Temperature   180.000 Kelvin.  Pressure   1.00000 Atm.
 Atom     1 has atomic number  6 and mass  12.00000

 Molecular mass:   199.14465 amu.
 Principal axes and moments of inertia in atomic units:
                           1         2         3
     Eigenvalues --  1855.041664626.965185304.44007
           X            0.99998  -0.00366   0.00470
           Y            0.00371   0.99994  -0.01038
           Z           -0.00466   0.01040   0.99994
 This molecule is an asymmetric top.
 Rotational symmetry number  1.
 Warning -- assumption of classical behavior for rotation
           may cause significant error
 Rotational temperatures (Kelvin)      0.04669     0.01872     0.01633
 Rotational constants (GHZ):           0.97288     0.39005     0.34023
 Zero-point vibrational energy     769395.8 (Joules/Mol)
                                  183.89001 (Kcal/Mol)
 Warning -- explicit consideration of  18 degrees of freedom as
           vibrations may cause significant error
 Vibrational temperatures:     26.14    51.60    79.80    97.88   116.07
          (Kelvin)            131.50   144.11   195.99   266.63   268.67
                              318.08   335.02   347.05   368.02   381.26
                              409.21   459.95   475.50   552.23   593.67
                              612.49   730.25   769.76   809.73   901.44
                              919.17   989.66  1061.00  1122.98  1139.44
                             1168.23  1201.35  1309.67  1338.15  1359.82
                             1383.98  1421.33  1440.29  1481.21  1493.67
                             1503.60  1525.36  1555.86  1588.60  1624.40
                             1657.74  1668.34  1743.27  1756.38  1779.68
                             1798.09  1826.84  1850.49  1866.70  1893.38
                             1931.45  1961.57  1971.65  1985.87  2024.31
                             2090.50  2123.05  2131.53  2133.91  2144.95
                             2154.97  2165.85  2188.33  2198.82  2253.54
                             2348.18  2377.65  2397.91  2414.29  4430.06
                             4432.27  4462.57  4468.26  4483.33  4533.69
                             4546.48  4548.43  4562.10  4576.46  4582.48
                             4593.78  4604.37  4612.14  4651.98  5143.45
                             5559.48  5669.80  5703.88

 Zero-point correction=                           0.293047 (Hartree/Particle)
 Thermal correction to Energy=                    0.300386
 Thermal correction to Enthalpy=                  0.300956
 Thermal correction to Gibbs Free Energy=         0.269881
 Sum of electronic and zero-point Energies=           -651.859791
 Sum of electronic and thermal Energies=              -651.852452
 Sum of electronic and thermal Enthalpies=            -651.851882
 Sum of electronic and thermal Free Energies=         -651.882957

                     E (Thermal)             CV                S
                      KCal/Mol        Cal/Mol-Kelvin    Cal/Mol-Kelvin
 Total                  188.495             42.111            108.334
 Electronic               0.000              0.000              0.000
 Translational            0.537              2.981             39.264
 Rotational               0.537              2.981             30.683
 Vibrational            187.422             36.150             38.387
 Vibration     1          0.358              1.984              5.823
 Vibration     2          0.360              1.974              4.477
 Vibration     3          0.364              1.955              3.620
 Vibration     4          0.366              1.939              3.222
 Vibration     5          0.370              1.920              2.893
 Vibration     6          0.373              1.901              2.655
 Vibration     7          0.377              1.884              2.481
 Vibration     8          0.392              1.802              1.913
 Vibration     9          0.421              1.660              1.379
 Vibration    10          0.422              1.656              1.366
 Vibration    11          0.446              1.542              1.096
 Vibration    12          0.455              1.501              1.017
 Vibration    13          0.462              1.471              0.964
 Vibration    14          0.474              1.419              0.880
 Vibration    15          0.482              1.385              0.830
 Vibration    16          0.500              1.314              0.734
 Vibration    17          0.534              1.185              0.588
 Vibration    18          0.545              1.145              0.550

                           ! Non-Optimized Parameters !
 Normal termination of Gaussian 16 at Sun Nov 14 16:55:40 2021.
