 Gaussian 16, Revision A.03,
 Gaussian 16:  ES64L-G16RevA.03 25-Dec-2016

 -----------------------------
 # wB97XD/aug-cc-pVDZ opt freq
 -----------------------------

 ----
 blah
 ----
 Symbolic Z-matrix:
 Charge =  1 Multiplicity = 1

 SCF Done:  E(RwB97XD) =  -652.146545126     A.U. after   14 cycles
 SCF Done:  E(RwB97XD) =  -652.148680765     A.U. after   12 cycles
 SCF Done:  E(RwB97XD) =  -652.148696794     A.U. after   15 cycles
 SCF Done:  E(RwB97XD) =  -652.149975824     A.U. after   15 cycles
 SCF Done:  E(RwB97XD) =  -652.150142583     A.U. after   15 cycles
 SCF Done:  E(RwB97XD) =  -652.150646229     A.U. after   12 cycles
 SCF Done:  E(RwB97XD) =  -652.150647756     A.U. after   14 cycles
 SCF Done:  E(RwB97XD) =  -652.150836924     A.U. after   13 cycles
 SCF Done:  E(RwB97XD) =  -652.150902907     A.U. after   11 cycles
 SCF Done:  E(RwB97XD) =  -652.150987807     A.U. after   10 cycles
 SCF Done:  E(RwB97XD) =  -652.151175571     A.U. after    8 cycles
 SCF Done:  E(RwB97XD) =  -652.151175640     A.U. after    9 cycles
 SCF Done:  E(RwB97XD) =  -652.151175704     A.U. after    8 cycles
 SCF Done:  E(RwB97XD) =  -652.151175733     A.U. after    8 cycles
 SCF Done:  E(RwB97XD) =  -652.151175747     A.U. after    8 cycles
 SCF Done:  E(RwB97XD) =  -652.151175764     A.U. after    8 cycles
 SCF Done:  E(RwB97XD) =  -652.151175776     A.U. after    8 cycles
 SCF Done:  E(RwB97XD) =  -652.151175783     A.U. after    8 cycles
 SCF Done:  E(RwB97XD) =  -652.151175787     A.U. after    7 cycles
 Optimization completed.
    -- Stationary point found.
 Normal termination of Gaussian 16 at Tue Jan 24 17:27:10 2023.

 ----------------------------------------------------------------------
 #N Geom=AllCheck Guess=TCheck SCRF=Check GenChk RwB97XD/Aug-CC-pVDZ Fr
 eq
 ----------------------------------------------------------------------

 Structure from the checkpoint file:  "/gscratch/scrubbed/gds001/Gau-31444.chk"
 ----
 blah
 ----
 Charge =  1 Multiplicity = 1

                         Standard orientation:
 ---------------------------------------------------------------------
 Center     Atomic      Atomic             Coordinates (Angstroms)
 Number     Number       Type             X           Y           Z
 ---------------------------------------------------------------------
      1          6           0       -2.046582   -1.563129   -0.906754
      2          6           0       -1.665920   -0.604853    0.252393
      3          7           0       -2.855838    0.204318    0.459479
      4          6           0       -3.981071   -0.709663    0.277502
      5          6           0       -3.591264   -1.517816   -0.958910
      6          6           0       -0.464768    0.251823   -0.070474
      7          6           0        0.796224   -0.064594    0.406356
      8          7           0        1.864516    0.681579    0.074631
      9          6           0        1.774881    1.761604   -0.714415
     10          6           0        0.541395    2.140341   -1.216468
     11          6           0       -0.579425    1.381033   -0.891839
     12          6           0       -2.875760    0.912893    1.725879
     13          1           0       -1.429182   -1.203625    1.157499
     14          1           0       -1.606902   -1.226256   -1.853111
     15          1           0       -1.660196   -2.569450   -0.709729
     16          1           0       -3.927255   -1.005771   -1.867488
     17          1           0       -4.037401   -2.517589   -0.953656
     18          1           0       -4.096665   -1.373342    1.158449
     19          1           0       -4.912925   -0.145011    0.156523
     20          1           0       -1.569385    1.655236   -1.256533
     21          1           0        2.701107    2.294032   -0.915896
     22          1           0        2.803625    0.410411    0.454834
     23          1           0        0.989023   -0.911667    1.061664
     24          1           0       -2.033361    1.615039    1.785611
     25          1           0       -2.819140    0.224088    2.592338
     26          1           0       -3.801672    1.493819    1.805971
     27          1           0        0.465784    3.019763   -1.851732
     28          8           0        4.259743   -0.022554    1.039040
     29          1           0        4.664630    0.275001    1.856651
     30          1           0        4.903999   -0.615169    0.599331
     31          8           0        5.983075   -1.674600   -0.246204
     32          1           0        6.154088   -2.586224    0.005797
     33          1           0        6.762270   -1.383165   -0.727613
 ---------------------------------------------------------------------

 SCF Done:  E(RwB97XD) =  -652.151175787     A.U. after    1 cycles

 The electronic state is 1-A.
 Alpha  occ. eigenvalues --  -19.41644 -19.40776 -14.67974 -14.55111 -10.51248
 Alpha  occ. eigenvalues --  -10.50884 -10.47292 -10.46910 -10.46829 -10.45147
 Alpha  occ. eigenvalues --  -10.41370 -10.41298 -10.40489 -10.39023  -1.26480
 Alpha  occ. eigenvalues --   -1.25972  -1.24583  -1.15636  -1.07908  -1.04703
 Alpha  occ. eigenvalues --   -0.98969  -0.95019  -0.90576  -0.88818  -0.87443
 Alpha  occ. eigenvalues --   -0.82873  -0.78355  -0.77268  -0.76482  -0.76353
 Alpha  occ. eigenvalues --   -0.74858  -0.73622  -0.70610  -0.68901  -0.68427
 Alpha  occ. eigenvalues --   -0.67839  -0.64698  -0.64544  -0.63239  -0.62243
 Alpha  occ. eigenvalues --   -0.61486  -0.59993  -0.59030  -0.56957  -0.56136
 Alpha  occ. eigenvalues --   -0.55237  -0.54554  -0.54477  -0.54192  -0.52830
 Alpha  occ. eigenvalues --   -0.52264  -0.50660  -0.48970  -0.41172
 Alpha virt. eigenvalues --   -0.14149  -0.10584  -0.07325  -0.05384  -0.04907
 Alpha virt. eigenvalues --   -0.04498  -0.03491  -0.03102  -0.02860  -0.02740
 Alpha virt. eigenvalues --   -0.01693  -0.01422  -0.00988  -0.00831  -0.00207

 Mulliken charges:
               1
     1  C    0.918058
     2  C    0.772136
     3  N   -0.432448
     4  C    1.187746
     5  C    0.669544
     6  C    1.251618
     7  C    0.646280
     8  N   -0.071968
     9  C    0.743980
    10  C    0.188762
    11  C    1.165428
    12  C    0.839359
    13  H   -0.800029
    14  H   -0.441994
    15  H   -0.373953
    16  H   -0.330271
    17  H   -0.281310
    18  H   -0.380319
    19  H   -0.527620
    20  H   -0.963131
    21  H   -0.633685
    22  H    0.067804
    23  H   -0.824449
    24  H   -0.338514
    25  H   -0.167242
    26  H   -0.231367
    27  H   -0.582378
    28  O   -0.435669
    29  H    0.143699
    30  H    0.248796
    31  O   -0.333983
    32  H    0.154026
    33  H    0.153091
 Sum of Mulliken charges =   1.00000

 Dipole moment (field-independent basis, Debye):
    X=              8.8061    Y=              0.1475    Z=             -0.0209  Tot=              8.8074
 Quadrupole moment (field-independent basis, Debye-Ang):
   XX=             -2.0649   YY=            -65.1580   ZZ=            -75.9605
   XY=             -8.2150   XZ=              1.2462   YZ=             -4.2591

  Exact polarizability: 176.356  12.162 137.111  -0.514  -8.880 122.516
 Approx polarizability: 172.414   5.688 156.224   3.871 -17.732 141.248

                      1                      2                      3
                      A                      A                      A
 Frequencies --     15.3642                16.0195                27.2199
 Red. masses --      3.8198                 4.2848                 2.5204
 Frc consts  --      0.0005                 0.0006                 0.0011
 IR Inten    --      0.0436                 0.2807                 0.6192

                      4                      5                      6
                      A                      A                      A
 Frequencies --     33.1153                40.1597                95.2149
 Red. masses --      4.8400                 4.3769                 3.6927
 Frc consts  --      0.0031                 0.0042                 0.0197
 IR Inten    --      0.4647                 1.5987                 0.5467

                      7                      8                      9
                      A                      A                      A
 Frequencies --    104.3838               110.5903               161.9135
 Red. masses --      1.0503                 3.9885                 2.0170
 Frc consts  --      0.0067                 0.0287                 0.0312
 IR Inten    --     38.3450                 1.1987                 0.4660

                     10                     11                     12
                      A                      A                      A
 Frequencies --    185.0827               195.6820               206.4300
 Red. masses --      2.7797                 4.6439                 1.1427
 Frc consts  --      0.0561                 0.1048                 0.0287
 IR Inten    --      2.4387                32.6023                55.7046

                     13                     14                     15
                      A                      A                      A
 Frequencies --    222.5966               244.6421               264.3641
 Red. masses --      1.1695                 1.1285                 2.7461
 Frc consts  --      0.0341                 0.0398                 0.1131
 IR Inten    --    230.3206                 1.3870                 1.0735

                     16                     17                     18
                      A                      A                      A
 Frequencies --    278.7776               294.6825               319.4102
 Red. masses --      1.0657                 4.5182                 4.7772
 Frc consts  --      0.0488                 0.2312                 0.2872
 IR Inten    --     41.7221                 5.9697                13.9219

                     19                     20                     21
                      A                      A                      A
 Frequencies --    358.5531               412.5045               417.1356
 Red. masses --      2.7655                 2.8614                 3.0851
 Frc consts  --      0.2095                 0.2869                 0.3163
 IR Inten    --      6.4281                 1.7711                 1.6933

                     22                     23                     24
                      A                      A                      A
 Frequencies --    514.0052               554.2280               593.6942
 Red. masses --      1.2433                 3.0279                 3.0667
 Frc consts  --      0.1935                 0.5480                 0.6369
 IR Inten    --     18.0373                10.5886                 3.0014

                     25                     26                     27
                      A                      A                      A
 Frequencies --    637.0430               646.2849               665.0975
 Red. masses --      5.4193                 3.2077                 4.2308
 Frc consts  --      1.2958                 0.7894                 1.1027
 IR Inten    --     23.8711                 2.4297                 2.0959

                     28                     29                     30
                      A                      A                      A
 Frequencies --    709.3462               773.8746               796.6727
 Red. masses --      1.9899                 1.8118                 1.0482
 Frc consts  --      0.5899                 0.6393                 0.3920
 IR Inten    --     36.4652                 1.9500               103.2643

                     31                     32                     33
                      A                      A                      A
 Frequencies --    838.9497               854.9183               921.6571
 Red. masses --      1.6223                 1.9717                 1.7055
 Frc consts  --      0.6728                 0.8491                 0.8536
 IR Inten    --     30.8916                 9.2846                11.1725

                     34                     35                     36
                      A                      A                      A
 Frequencies --    935.5134               945.3163               969.1318
 Red. masses --      3.3705                 1.5494                 2.1779
 Frc consts  --      1.7380                 0.8158                 1.2052
 IR Inten    --      3.8618                 8.0683                 2.4319

                     37                     38                     39
                      A                      A                      A
 Frequencies --    983.6188              1000.1578              1045.1511
 Red. masses --      1.4652                 1.8571                 1.8734
 Frc consts  --      0.8352                 1.0945                 1.2057
 IR Inten    --      2.5714                 0.8337                 1.4033

                     40                     41                     42
                      A                      A                      A
 Frequencies --   1045.5884              1061.9693              1080.0956
 Red. masses --      2.3293                 2.3252                 1.6814
 Frc consts  --      1.5004                 1.5450                 1.1557
 IR Inten    --      1.2777                 2.1688                17.7308

                     43                     44                     45
                      A                      A                      A
 Frequencies --   1085.1183              1110.8179              1135.5564
 Red. masses --      2.1124                 2.1711                 1.4422
 Frc consts  --      1.4655                 1.5784                 1.0957
 IR Inten    --      2.0947                10.7119                 9.8352

                     46                     47                     48
                      A                      A                      A
 Frequencies --   1137.7295              1196.6808              1206.0944
 Red. masses --      1.2963                 1.4829                 1.2629
 Frc consts  --      0.9886                 1.2512                 1.0824
 IR Inten    --      1.9115                10.4667                 9.3963

                     49                     50                     51
                      A                      A                      A
 Frequencies --   1208.1516              1219.6355              1243.0899
 Red. masses --      1.0956                 1.6053                 1.6372
 Frc consts  --      0.9422                 1.4069                 1.4906
 IR Inten    --     28.8488                 9.8752                11.1729

                     52                     53                     54
                      A                      A                      A
 Frequencies --   1257.3895              1271.6085              1291.4785
 Red. masses --      1.6535                 1.8325                 1.8316
 Frc consts  --      1.5402                 1.7458                 1.7999
 IR Inten    --      6.7472                19.5265                 8.9279

                     55                     56                     57
                      A                      A                      A
 Frequencies --   1304.3548              1322.0309              1330.0420
 Red. masses --      1.4368                 1.5668                 1.3471
 Frc consts  --      1.4403                 1.6134                 1.4041
 IR Inten    --     10.4636                13.8628                 4.4786

                     58                     59                     60
                      A                      A                      A
 Frequencies --   1347.7981              1353.8413              1378.6060
 Red. masses --      1.4913                 1.9138                 1.9495
 Frc consts  --      1.5961                 2.0667                 2.1830
 IR Inten    --      4.7271                 5.5136                24.5597

                     61                     62                     63
                      A                      A                      A
 Frequencies --   1390.0277              1439.3884              1453.0259
 Red. masses --      1.6545                 1.6808                 1.3372
 Frc consts  --      1.8835                 2.0517                 1.6633
 IR Inten    --     12.1436                11.7320                 3.0091

                     64                     65                     66
                      A                      A                      A
 Frequencies --   1477.4454              1483.5846              1488.7747
 Red. masses --      1.0461                 1.0737                 1.0783
 Frc consts  --      1.3454                 1.3924                 1.4081
 IR Inten    --     12.0945                 6.6949                 3.5159

                     67                     68                     69
                      A                      A                      A
 Frequencies --   1502.7100              1514.6848              1520.9564
 Red. masses --      1.0884                 1.8851                 1.2269
 Frc consts  --      1.4481                 2.5482                 1.6723
 IR Inten    --     11.0424                27.7788                 7.6656

                     70                     71                     72
                      A                      A                      A
 Frequencies --   1618.1569              1628.2841              1660.4752
 Red. masses --      2.1892                 1.0910                 1.0886
 Frc consts  --      3.3774                 1.7042                 1.7685
 IR Inten    --     44.0452                92.8949                 7.3543

                     73                     74                     75
                      A                      A                      A
 Frequencies --   1699.2252              1711.5380              2931.1495
 Red. masses --      4.4542                 3.1211                 1.0821
 Frc consts  --      7.5774                 5.3868                 5.4777
 IR Inten    --      8.2725                 6.0906                30.7700

                     76                     77                     78
                      A                      A                      A
 Frequencies --   2958.1295              2964.0851              3030.4846
 Red. masses --      1.0711                 1.0570                 1.0962
 Frc consts  --      5.5223                 5.4716                 5.9314
 IR Inten    --     46.9305                87.5984              2479.2080

                     79                     80                     81
                      A                      A                      A
 Frequencies --   3087.2579              3090.7405              3101.4266
 Red. masses --      1.0616                 1.0806                 1.0645
 Frc consts  --      5.9618                 6.0820                 6.0325
 IR Inten    --     17.6684                28.9366                20.2010

                     82                     83                     84
                      A                      A                      A
 Frequencies --   3121.8131              3136.2100              3145.2248
 Red. masses --      1.0902                 1.1059                 1.1019
 Frc consts  --      6.2598                 6.4087                 6.4223
 IR Inten    --     20.0744                 3.5927                15.5487

                     85                     86                     87
                      A                      A                      A
 Frequencies --   3159.6380              3222.7482              3236.4241
 Red. masses --      1.1065                 1.0922                 1.0955
 Frc consts  --      6.5086                 6.6838                 6.7606
 IR Inten    --     23.1958                 1.4179                 1.2743

                     88                     89                     90
                      A                      A                      A
 Frequencies --   3246.0016              3261.7921              3551.4419
 Red. masses --      1.0933                 1.1001                 1.0613
 Frc consts  --      6.7871                 6.8959                 7.8869
 IR Inten    --      2.7380                 2.2536               904.6065

                     91                     92                     93
                      A                      A                      A
 Frequencies --   3873.7062              3946.4765              3977.8470
 Red. masses --      1.0452                 1.0686                 1.0830
 Frc consts  --      9.2403                 9.8059                10.0968
 IR Inten    --     33.7362               114.1669               119.1339

 - Thermochemistry -
 -------------------
 Temperature   298.150 Kelvin.  Pressure   1.00000 Atm.
 Atom     1 has atomic number  6 and mass  12.00000

 Molecular mass:   199.14465 amu.
 Principal axes and moments of inertia in atomic units:
                           1         2         3
     Eigenvalues --  1597.967777202.033587721.40993
           X            1.00000  -0.00184  -0.00116
           Y            0.00185   0.99990   0.01404
           Z            0.00114  -0.01404   0.99990
 This molecule is an asymmetric top.
 Rotational symmetry number  1.
 Warning -- assumption of classical behavior for rotation
           may cause significant error
 Rotational temperatures (Kelvin)      0.05420     0.01203     0.01122
 Rotational constants (GHZ):           1.12940     0.25059     0.23373
 Zero-point vibrational energy     763259.7 (Joules/Mol)
                                  182.42344 (Kcal/Mol)
 Warning -- explicit consideration of  24 degrees of freedom as
           vibrations may cause significant error
 Vibrational temperatures:     22.11    23.05    39.16    47.65    57.78
          (Kelvin)            136.99   150.19   159.11   232.96   266.29
                              281.54   297.01   320.27   351.99   380.36
                              401.10   423.98   459.56   515.88   593.50
                              600.17   739.54   797.41   854.19   916.56
                              929.86   956.93  1020.59  1113.43  1146.23
                             1207.06  1230.04  1326.06  1346.00  1360.10
                             1394.36  1415.21  1439.00  1503.74  1504.37
                             1527.94  1554.02  1561.24  1598.22  1633.81
                             1636.94  1721.76  1735.30  1738.26  1754.78
                             1788.53  1809.10  1829.56  1858.15  1876.68
                             1902.11  1913.63  1939.18  1947.88  1983.51
                             1999.94  2070.96  2090.58  2125.71  2134.55
                             2142.01  2162.06  2179.29  2188.32  2328.17
                             2342.74  2389.05  2444.81  2462.52  4217.27
                             4256.09  4264.66  4360.19  4441.88  4446.89
                             4462.26  4491.59  4512.31  4525.28  4546.01
                             4636.82  4656.49  4670.27  4692.99  5109.73
                             5573.40  5678.10  5723.23

 Zero-point correction=                           0.290710 (Hartree/Particle)
 Thermal correction to Energy=                    0.308263
 Thermal correction to Enthalpy=                  0.309208
 Thermal correction to Gibbs Free Energy=         0.241183
 Sum of electronic and zero-point Energies=           -651.860466
 Sum of electronic and thermal Energies=              -651.842912
 Sum of electronic and thermal Enthalpies=            -651.841968
 Sum of electronic and thermal Free Energies=         -651.909993

                     E (Thermal)             CV                S
                      KCal/Mol        Cal/Mol-Kelvin    Cal/Mol-Kelvin
 Total                  193.438             61.515            143.170
 Electronic               0.000              0.000              0.000
 Translational            0.889              2.981             41.771
 Rotational               0.889              2.981             32.852
 Vibrational            191.661             55.554             68.547
 Vibration     1          0.593              1.986              7.158
 Vibration     2          0.593              1.986              7.075
 Vibration     3          0.593              1.984              6.022
 Vibration     4          0.594              1.983              5.633
 Vibration     5          0.594              1.981              5.251
 Vibration     6          0.603              1.953              3.550
 Vibration     7          0.605              1.946              3.371
 Vibration     8          0.606              1.941              3.259
 Vibration     9          0.622              1.889              2.527
 Vibration    10          0.631              1.860              2.277
 Vibration    11          0.636              1.846              2.173
 Vibration    12          0.641              1.831              2.075
 Vibration    13          0.648              1.807              1.938
 Vibration    14          0.660              1.772              1.769
 Vibration    15          0.671              1.738              1.633
 Vibration    16          0.679              1.713              1.541
 Vibration    17          0.689              1.684              1.447
 Vibration    18          0.705              1.636              1.313
 Vibration    19          0.733              1.558              1.128
 Vibration    20          0.776              1.443              0.918
 Vibration    21          0.780              1.433              0.902
 Vibration    22          0.869              1.219              0.624
 Vibration    23          0.910              1.130              0.535
 Vibration    24          0.951              1.045              0.461

                           ! Non-Optimized Parameters !
 Normal termination of Gaussian 16 at Tue Jan 24 17:59:23 2023.
