 Gaussian 16, Revision A.03,
 Gaussian 16:  ES64L-G16RevA.03 25-Dec-2016

 ------------------------------------------------
 # wB97XD/aug-cc-pVDZ Opt=(CalcFC,ReCalc=50) Freq
 ------------------------------------------------

 ---------------------------
 p-Py Nicotine, S anti, 2H2O
 ---------------------------
 Symbolic Z-matrix:
 Charge =  1 Multiplicity = 1

 SCF Done:  E(RwB97XD) =  -652.150352576     A.U. after   14 cycles
 SCF Done:  E(RwB97XD) =  -652.151615744     A.U. after   13 cycles
 SCF Done:  E(RwB97XD) =  -652.151834233     A.U. after   15 cycles
 SCF Done:  E(RwB97XD) =  -652.151953358     A.U. after   12 cycles
 SCF Done:  E(RwB97XD) =  -652.151993169     A.U. after   12 cycles
 SCF Done:  E(RwB97XD) =  -652.152006441     A.U. after   12 cycles
 SCF Done:  E(RwB97XD) =  -652.152013515     A.U. after   12 cycles
 SCF Done:  E(RwB97XD) =  -652.152014515     A.U. after   11 cycles
 SCF Done:  E(RwB97XD) =  -652.152014562     A.U. after    8 cycles
 Optimization completed.
    -- Stationary point found.
 Normal termination of Gaussian 16 at Mon Jul 20 22:14:54 2020.

 ----------------------------------------------------------------------
 #N Geom=AllCheck Guess=TCheck SCRF=Check GenChk RwB97XD/Aug-CC-pVDZ Fr
 eq
 ----------------------------------------------------------------------

 Structure from the checkpoint file:  "NicPySa2h2.chk"
 ---------------------------
 p-Py Nicotine, S anti, 2H2O
 ---------------------------
 Charge =  1 Multiplicity = 1

                         Standard orientation:
 ---------------------------------------------------------------------
 Center     Atomic      Atomic             Coordinates (Angstroms)
 Number     Number       Type             X           Y           Z
 ---------------------------------------------------------------------
      1          7           0       -1.935567   -1.211294   -0.399476
      2          6           0       -2.059397    0.241227   -0.398693
      3          6           0       -2.979149    0.579226    0.812583
      4          6           0       -3.244673   -0.779663    1.480108
      5          6           0       -3.084917   -1.753586    0.321436
      6          6           0       -0.703774    0.911424   -0.305018
      7          6           0        0.401021    0.214708    0.162281
      8          7           0        1.592273    0.822290    0.282617
      9          6           0        1.787267    2.111402   -0.034045
     10          6           0        0.728136    2.862583   -0.510850
     11          6           0       -0.518511    2.254927   -0.648216
     12          8           0        3.719171   -0.540820    1.175677
     13          1           0       -2.881469   -2.784298    0.636282
     14          1           0       -4.233792   -0.828907    1.946861
     15          1           0       -2.491816   -0.990190    2.250402
     16          1           0       -3.914268    1.016649    0.444582
     17          1           0       -2.523304    1.305665    1.494916
     18          1           0       -3.995801   -1.761766   -0.309946
     19          1           0       -2.536856    0.604543   -1.329140
     20          1           0        0.337900   -0.835643    0.436816
     21          1           0        2.793614    2.499170    0.102686
     22          1           0        0.881869    3.906508   -0.773724
     23          1           0       -1.361427    2.833016   -1.029034
     24          6           0       -1.719742   -1.786385   -1.713991
     25          1           0        2.407965    0.267686    0.637311
     26          1           0        4.349667   -1.048273    0.624368
     27          1           0        3.982368   -0.666020    2.089955
     28          8           0        5.426461   -1.911161   -0.428093
     29          1           0        6.311752   -1.612507   -0.653658
     30          1           0        5.435850   -2.866643   -0.531461
     31          1           0       -0.804608   -1.376618   -2.163436
     32          1           0       -2.561948   -1.586489   -2.404581
     33          1           0       -1.595265   -2.872182   -1.625434
 ---------------------------------------------------------------------

 SCF Done:  E(RwB97XD) =  -652.152014562     A.U. after    1 cycles

 The electronic state is 1-A.
 Alpha  occ. eigenvalues --  -19.41497 -19.40529 -14.67726 -14.55209 -10.50991
 Alpha  occ. eigenvalues --  -10.50193 -10.47550 -10.46809 -10.46705 -10.45279
 Alpha  occ. eigenvalues --  -10.41654 -10.41597 -10.40663 -10.39383  -1.26250
 Alpha  occ. eigenvalues --   -1.25743  -1.24355  -1.15630  -1.07981  -1.04301
 Alpha  occ. eigenvalues --   -0.99371  -0.95126  -0.90497  -0.88886  -0.87538
 Alpha  occ. eigenvalues --   -0.82345  -0.78709  -0.77856  -0.76246  -0.76203
 Alpha  occ. eigenvalues --   -0.74161  -0.73580  -0.70365  -0.69083  -0.68768
 Alpha  occ. eigenvalues --   -0.67501  -0.64590  -0.64138  -0.63711  -0.62210
 Alpha  occ. eigenvalues --   -0.61356  -0.60719  -0.58834  -0.57209  -0.56421
 Alpha  occ. eigenvalues --   -0.55315  -0.54488  -0.54413  -0.54221  -0.52666
 Alpha  occ. eigenvalues --   -0.52517  -0.51283  -0.48730  -0.41152
 Alpha virt. eigenvalues --   -0.14005  -0.10351  -0.07161  -0.05489  -0.04652
 Alpha virt. eigenvalues --   -0.04466  -0.03590  -0.03096  -0.03025  -0.02592
 Alpha virt. eigenvalues --   -0.01680  -0.01373  -0.01133  -0.00788  -0.00204

 Mulliken charges:
               1
     1  N   -0.394420
     2  C    0.939103
     3  C    0.941062
     4  C    0.606298
     5  C    1.153672
     6  C    0.708207
     7  C    0.728901
     8  N    0.006222
     9  C    0.728161
    10  C    0.301373
    11  C    1.145893
    12  O   -0.435206
    13  H   -0.510723
    14  H   -0.261996
    15  H   -0.375455
    16  H   -0.364674
    17  H   -0.447167
    18  H   -0.458280
    19  H   -0.527389
    20  H   -0.967871
    21  H   -0.649161
    22  H   -0.558647
    23  H   -0.869086
    24  C    0.790798
    25  H    0.073488
    26  H    0.249230
    27  H    0.144362
    28  O   -0.335791
    29  H    0.152561
    30  H    0.154649
    31  H   -0.285392
    32  H   -0.165790
    33  H   -0.216931
 Sum of Mulliken charges =   1.00000

 Dipole moment (field-independent basis, Debye):
    X=              7.0106    Y=              1.0132    Z=              0.0144  Tot=              7.0834
 Quadrupole moment (field-independent basis, Debye-Ang):
   XX=            -14.6851   YY=            -56.0722   ZZ=            -77.8310
   XY=            -11.7690   XZ=              1.9083   YZ=             -1.8069

  Exact polarizability: 166.070  12.709 151.347   1.055  -4.623 116.481
 Approx polarizability: 169.724   5.133 166.864   6.696  -9.615 132.119

                      1                      2                      3
                      A                      A                      A
 Frequencies --     12.8417                19.5595                28.8035
 Red. masses --      4.4917                 3.4763                 2.9810
 Frc consts  --      0.0004                 0.0008                 0.0015
 IR Inten    --      0.6592                 0.3344                 0.6914

                      4                      5                      6
                      A                      A                      A
 Frequencies --     33.8906                39.4751                95.6560
 Red. masses --      4.9106                 4.3760                 3.8878
 Frc consts  --      0.0033                 0.0040                 0.0210
 IR Inten    --      0.3736                 0.9360                 0.9457

                      7                      8                      9
                      A                      A                      A
 Frequencies --    106.0485               121.8660               163.1885
 Red. masses --      1.0615                 3.4716                 3.3884
 Frc consts  --      0.0070                 0.0304                 0.0532
 IR Inten    --     40.8653                 1.1164                 6.2998

                     10                     11                     12
                      A                      A                      A
 Frequencies --    197.2173               199.4808               216.5511
 Red. masses --      2.5734                 1.4221                 1.6058
 Frc consts  --      0.0590                 0.0333                 0.0444
 IR Inten    --     44.8041                42.1777                 1.9197

                     13                     14                     15
                      A                      A                      A
 Frequencies --    221.0239               247.2319               276.1906
 Red. masses --      1.1787                 1.1996                 1.3754
 Frc consts  --      0.0339                 0.0432                 0.0618
 IR Inten    --    225.9337                 1.1832                23.0430

                     16                     17                     18
                      A                      A                      A
 Frequencies --    277.4325               296.1938               307.4410
 Red. masses --      1.7995                 3.6039                 4.6571
 Frc consts  --      0.0816                 0.1863                 0.2593
 IR Inten    --     15.2382                 3.5105                14.2915

                     19                     20                     21
                      A                      A                      A
 Frequencies --    357.8241               414.6065               430.2446
 Red. masses --      2.7633                 2.8836                 3.1468
 Frc consts  --      0.2085                 0.2921                 0.3432
 IR Inten    --     10.3322                 1.5990                 0.3539

                     22                     23                     24
                      A                      A                      A
 Frequencies --    509.6976               543.3758               584.0253
 Red. masses --      1.3994                 2.3879                 2.2984
 Frc consts  --      0.2142                 0.4154                 0.4619
 IR Inten    --     14.4391                17.6126                 1.2871

                     25                     26                     27
                      A                      A                      A
 Frequencies --    615.9847               642.9559               661.2230
 Red. masses --      4.0418                 5.4094                 3.5270
 Frc consts  --      0.9036                 1.3175                 0.9085
 IR Inten    --      8.7542                11.4664                 2.3660

                     28                     29                     30
                      A                      A                      A
 Frequencies --    712.5109               781.8916               792.2730
 Red. masses --      2.0293                 2.5563                 1.0605
 Frc consts  --      0.6070                 0.9208                 0.3922
 IR Inten    --     35.5802                 9.8919               100.1379

                     31                     32                     33
                      A                      A                      A
 Frequencies --    837.1246               873.9422               901.3916
 Red. masses --      1.4928                 2.0640                 1.8389
 Frc consts  --      0.6164                 0.9288                 0.8803
 IR Inten    --     33.2948                 3.5783                 8.3306

                     34                     35                     36
                      A                      A                      A
 Frequencies --    938.3290               962.5982               973.1601
 Red. masses --      3.1060                 1.9637                 1.9634
 Frc consts  --      1.6113                 1.0721                 1.0955
 IR Inten    --      4.0608                 3.5462                 2.9295

                     37                     38                     39
                      A                      A                      A
 Frequencies --    978.8934               991.8343              1033.8936
 Red. masses --      1.3133                 1.6076                 1.3840
 Frc consts  --      0.7414                 0.9318                 0.8716
 IR Inten    --      6.1903                 1.2439                 0.3011

                     40                     41                     42
                      A                      A                      A
 Frequencies --   1044.5302              1062.3217              1077.4993
 Red. masses --      3.8555                 2.0668                 1.7712
 Frc consts  --      2.4784                 1.3742                 1.2116
 IR Inten    --      2.0558                 6.3813                17.2458

                     43                     44                     45
                      A                      A                      A
 Frequencies --   1085.4306              1106.6951              1136.3949
 Red. masses --      2.1879                 1.8080                 1.2656
 Frc consts  --      1.5188                 1.3046                 0.9629
 IR Inten    --      3.4901                 8.0438                 4.4693

                     46                     47                     48
                      A                      A                      A
 Frequencies --   1141.0379              1179.9910              1207.6213
 Red. masses --      1.5060                 1.4295                 1.1733
 Frc consts  --      1.1552                 1.1727                 1.0082
 IR Inten    --      4.9741                 6.7251                 6.8973

                     49                     50                     51
                      A                      A                      A
 Frequencies --   1210.8574              1211.9829              1231.9816
 Red. masses --      1.4810                 1.1710                 2.0177
 Frc consts  --      1.2793                 1.0135                 1.8043
 IR Inten    --      3.2315                33.2265                16.5341

                     52                     53                     54
                      A                      A                      A
 Frequencies --   1257.4907              1268.6468              1284.5638
 Red. masses --      1.8344                 1.5911                 1.8195
 Frc consts  --      1.7090                 1.5088                 1.7689
 IR Inten    --     12.8088                10.3807                28.0415

                     55                     56                     57
                      A                      A                      A
 Frequencies --   1301.8706              1309.0302              1339.9635
 Red. masses --      1.4234                 1.3761                 1.7019
 Frc consts  --      1.4214                 1.3893                 1.8005
 IR Inten    --      8.3514                 1.7390                 9.1338

                     58                     59                     60
                      A                      A                      A
 Frequencies --   1348.7955              1364.0886              1373.1662
 Red. masses --      1.4047                 2.6426                 1.6537
 Frc consts  --      1.5056                 2.8971                 1.8372
 IR Inten    --      0.2216                18.9482                10.3395

                     61                     62                     63
                      A                      A                      A
 Frequencies --   1391.9335              1429.0970              1453.7842
 Red. masses --      1.7220                 1.8184                 1.2128
 Frc consts  --      1.9658                 2.1881                 1.5102
 IR Inten    --      6.9188                47.0959                 4.4874

                     64                     65                     66
                      A                      A                      A
 Frequencies --   1478.4240              1484.3692              1491.9584
 Red. masses --      1.0476                 1.0855                 1.0694
 Frc consts  --      1.3491                 1.4091                 1.4025
 IR Inten    --     11.4032                 8.6103                 8.4387

                     67                     68                     69
                      A                      A                      A
 Frequencies --   1499.8775              1510.1701              1520.4375
 Red. masses --      1.0920                 2.2522                 1.1263
 Frc consts  --      1.4474                 3.0263                 1.5340
 IR Inten    --      7.6466                25.8411                 1.1199

                     70                     71                     72
                      A                      A                      A
 Frequencies --   1619.0710              1628.8775              1660.5713
 Red. masses --      2.0773                 1.1000                 1.0988
 Frc consts  --      3.2083                 1.7196                 1.7852
 IR Inten    --     44.0299               100.8314                 7.9565

                     73                     74                     75
                      A                      A                      A
 Frequencies --   1696.3458              1711.7145              2966.8822
 Red. masses --      4.6113                 3.1359                 1.0755
 Frc consts  --      7.8181                 5.4135                 5.5778
 IR Inten    --     11.9655                 7.2430                44.0701

                     76                     77                     78
                      A                      A                      A
 Frequencies --   2970.9545              2974.6116              3040.5003
 Red. masses --      1.0761                 1.0571                 1.0961
 Frc consts  --      5.5962                 5.5109                 5.9703
 IR Inten    --     23.7181               106.8281              2261.9064

                     79                     80                     81
                      A                      A                      A
 Frequencies --   3085.5920              3087.0877              3093.1983
 Red. masses --      1.0833                 1.0638                 1.0634
 Frc consts  --      6.0769                 5.9734                 5.9947
 IR Inten    --     30.7620                17.2192                18.9322

                     82                     83                     84
                      A                      A                      A
 Frequencies --   3120.1049              3140.8070              3141.2349
 Red. masses --      1.0917                 1.1019                 1.1049
 Frc consts  --      6.2616                 6.4044                 6.4233
 IR Inten    --     26.8093                17.9080                 8.9050

                     85                     86                     87
                      A                      A                      A
 Frequencies --   3159.1645              3207.0441              3245.5425
 Red. masses --      1.1049                 1.0924                 1.0928
 Frc consts  --      6.4970                 6.6198                 6.7819
 IR Inten    --     22.7854                 0.3346                 1.7181

                     88                     89                     90
                      A                      A                      A
 Frequencies --   3249.4363              3260.4771              3556.1005
 Red. masses --      1.0950                 1.1005                 1.0613
 Frc consts  --      6.8123                 6.8929                 7.9075
 IR Inten    --     10.2676                 2.1748               881.4889

                     91                     92                     93
                      A                      A                      A
 Frequencies --   3874.1364              3947.4453              3978.4312
 Red. masses --      1.0452                 1.0687                 1.0830
 Frc consts  --      9.2424                 9.8112                10.0997
 IR Inten    --     32.9925               112.1090               117.8690

 - Thermochemistry -
 -------------------
 Temperature   298.150 Kelvin.  Pressure   1.00000 Atm.
 Atom     1 has atomic number  7 and mass  14.00307

 Molecular mass:   199.14465 amu.
 Principal axes and moments of inertia in atomic units:
                           1         2         3
     Eigenvalues --  2214.925915796.155946973.58097
           X            0.99999  -0.00401   0.00044
           Y            0.00401   0.99996   0.00798
           Z           -0.00048  -0.00798   0.99997
 This molecule is an asymmetric top.
 Rotational symmetry number  1.
 Warning -- assumption of classical behavior for rotation
           may cause significant error
 Rotational temperatures (Kelvin)      0.03910     0.01494     0.01242
 Rotational constants (GHZ):           0.81481     0.31137     0.25880
 Zero-point vibrational energy     763320.5 (Joules/Mol)
                                  182.43797 (Kcal/Mol)
 Warning -- explicit consideration of  25 degrees of freedom as
           vibrations may cause significant error
 Vibrational temperatures:     18.48    28.14    41.44    48.76    56.80
          (Kelvin)            137.63   152.58   175.34   234.79   283.75
                              287.01   311.57   318.00   355.71   397.38
                              399.16   426.16   442.34   514.83   596.53
                              619.03   733.34   781.80   840.28   886.26
                              925.07   951.35  1025.14  1124.97  1139.90
                             1204.44  1257.41  1296.90  1350.05  1384.96
                             1400.16  1408.41  1427.03  1487.54  1502.85
                             1528.44  1550.28  1561.69  1592.29  1635.02
                             1641.70  1697.74  1737.50  1742.15  1743.77
                             1772.55  1809.25  1825.30  1848.20  1873.10
                             1883.40  1927.91  1940.62  1962.62  1975.68
                             2002.68  2056.15  2091.67  2127.12  2135.68
                             2146.60  2157.99  2172.80  2187.57  2329.48
                             2343.59  2389.19  2440.66  2462.78  4268.68
                             4274.54  4279.80  4374.60  4439.48  4441.63
                             4450.42  4489.14  4518.92  4519.54  4545.33
                             4614.22  4669.61  4675.21  4691.10  5116.44
                             5574.02  5679.49  5724.08

 Zero-point correction=                           0.290733 (Hartree/Particle)
 Thermal correction to Energy=                    0.308226
 Thermal correction to Enthalpy=                  0.309171
 Thermal correction to Gibbs Free Energy=         0.241438
 Sum of electronic and zero-point Energies=           -651.861281
 Sum of electronic and thermal Energies=              -651.843788
 Sum of electronic and thermal Enthalpies=            -651.842844
 Sum of electronic and thermal Free Energies=         -651.910577

                     E (Thermal)             CV                S
                      KCal/Mol        Cal/Mol-Kelvin    Cal/Mol-Kelvin
 Total                  193.415             61.563            142.556
 Electronic               0.000              0.000              0.000
 Translational            0.889              2.981             41.771
 Rotational               0.889              2.981             32.859
 Vibrational            191.638             55.602             67.925
 Vibration     1          0.593              1.987              7.514
 Vibration     2          0.593              1.986              6.678
 Vibration     3          0.593              1.984              5.910
 Vibration     4          0.594              1.983              5.588
 Vibration     5          0.594              1.981              5.285
 Vibration     6          0.603              1.952              3.541
 Vibration     7          0.605              1.944              3.340
 Vibration     8          0.609              1.931              3.071
 Vibration     9          0.623              1.888              2.513
 Vibration    10          0.637              1.844              2.159
 Vibration    11          0.638              1.841              2.138
 Vibration    12          0.645              1.816              1.988
 Vibration    13          0.648              1.809              1.951
 Vibration    14          0.661              1.767              1.750
 Vibration    15          0.678              1.717              1.557
 Vibration    16          0.678              1.715              1.549
 Vibration    17          0.690              1.681              1.438
 Vibration    18          0.697              1.660              1.376
 Vibration    19          0.733              1.559              1.132
 Vibration    20          0.778              1.439              0.910
 Vibration    21          0.791              1.404              0.858
 Vibration    22          0.865              1.229              0.634
 Vibration    23          0.898              1.154              0.558
 Vibration    24          0.941              1.066              0.478
 Vibration    25          0.976              0.998              0.423

 Optimization completed on the basis of negligible forces.
    -- Stationary point found.
 Normal termination of Gaussian 16 at Mon Jul 20 22:54:15 2020.
