 Gaussian 16, Revision A.03,
 Gaussian 16:  ES64L-G16RevA.03 25-Dec-2016

 -----------------------------
 # wB97XD/aug-cc-pVDZ opt freq
 -----------------------------

 ----
 blah
 ----
 Symbolic Z-matrix:
 Charge =  1 Multiplicity = 1

 SCF Done:  E(RwB97XD) =  -652.149144238     A.U. after   14 cycles
 SCF Done:  E(RwB97XD) =  -652.150257578     A.U. after   12 cycles
 SCF Done:  E(RwB97XD) =  -652.150430366     A.U. after   13 cycles
 SCF Done:  E(RwB97XD) =  -652.150102240     A.U. after   15 cycles
 SCF Done:  E(RwB97XD) =  -652.150762299     A.U. after   13 cycles
 SCF Done:  E(RwB97XD) =  -652.150944553     A.U. after   14 cycles
 SCF Done:  E(RwB97XD) =  -652.151070489     A.U. after   12 cycles
 SCF Done:  E(RwB97XD) =  -652.151132077     A.U. after   10 cycles
 SCF Done:  E(RwB97XD) =  -652.151149991     A.U. after   10 cycles
 SCF Done:  E(RwB97XD) =  -652.151154969     A.U. after   10 cycles
 SCF Done:  E(RwB97XD) =  -652.151165715     A.U. after   10 cycles
 SCF Done:  E(RwB97XD) =  -652.151167220     A.U. after    9 cycles
 SCF Done:  E(RwB97XD) =  -652.151168061     A.U. after    9 cycles
 SCF Done:  E(RwB97XD) =  -652.151168414     A.U. after    8 cycles
 SCF Done:  E(RwB97XD) =  -652.151168537     A.U. after    8 cycles
 SCF Done:  E(RwB97XD) =  -652.151168622     A.U. after    8 cycles
 SCF Done:  E(RwB97XD) =  -652.151168682     A.U. after    8 cycles
 SCF Done:  E(RwB97XD) =  -652.151168725     A.U. after    7 cycles
 SCF Done:  E(RwB97XD) =  -652.151168770     A.U. after    7 cycles
 Optimization completed.
    -- Stationary point found.
 Normal termination of Gaussian 16 at Tue Jan 24 17:14:52 2023.

 ----------------------------------------------------------------------
 #N Geom=AllCheck Guess=TCheck SCRF=Check GenChk RwB97XD/Aug-CC-pVDZ Fr
 eq
 ----------------------------------------------------------------------

 Structure from the checkpoint file:  "/gscratch/scrubbed/gds001/Gau-753.chk"
 ----
 blah
 ----
 Charge =  1 Multiplicity = 1

                         Standard orientation:
 ---------------------------------------------------------------------
 Center     Atomic      Atomic             Coordinates (Angstroms)
 Number     Number       Type             X           Y           Z
 ---------------------------------------------------------------------
      1          6           0       -2.508755    0.065661   -1.583093
      2          6           0       -1.702739   -0.507517   -0.388190
      3          7           0       -2.649853   -0.520061    0.714850
      4          6           0       -3.926860   -0.911463    0.122663
      5          6           0       -3.989524   -0.096897   -1.168391
      6          6           0       -0.482208    0.318046   -0.057381
      7          6           0        0.782822   -0.066840   -0.468434
      8          7           0        1.855330    0.700040   -0.204086
      9          6           0        1.768764    1.856207    0.468846
     10          6           0        0.534754    2.294295    0.918544
     11          6           0       -0.591810    1.520811    0.652776
     12          6           0       -2.243947   -1.351195    1.833069
     13          1           0       -1.366325   -1.536793   -0.635687
     14          1           0       -2.257561    1.119194   -1.754538
     15          1           0       -2.265105   -0.479331   -2.501973
     16          1           0       -4.441619    0.882661   -0.976967
     17          1           0       -4.585292   -0.595388   -1.939859
     18          1           0       -3.942160   -1.997989   -0.099085
     19          1           0       -4.748313   -0.697657    0.816451
     20          1           0       -1.578244    1.825706    1.002332
     21          1           0        2.699099    2.395170    0.629995
     22          1           0        2.797003    0.376629   -0.533743
     23          1           0        0.976489   -0.989108   -1.012545
     24          1           0       -1.303294   -0.982123    2.263405
     25          1           0       -2.102156   -2.410207    1.538229
     26          1           0       -3.009123   -1.310057    2.616660
     27          1           0        0.463491    3.229102    1.469620
     28          8           0        4.254153   -0.139640   -1.043304
     29          1           0        4.893071   -0.672489   -0.526366
     30          1           0        4.676796    0.068180   -1.879494
     31          8           0        5.984154   -1.648714    0.401048
     32          1           0        6.142934   -2.583427    0.243448
     33          1           0        6.762525   -1.321755    0.860362
 ---------------------------------------------------------------------

 SCF Done:  E(RwB97XD) =  -652.151168770     A.U. after    1 cycles

 The electronic state is 1-A.
 Alpha  occ. eigenvalues --  -19.41616 -19.40777 -14.67977 -14.55122 -10.51257
 Alpha  occ. eigenvalues --  -10.50885 -10.47304 -10.46913 -10.46835 -10.45144
 Alpha  occ. eigenvalues --  -10.41400 -10.41299 -10.40465 -10.39008  -1.26474
 Alpha  occ. eigenvalues --   -1.25960  -1.24583  -1.15643  -1.07915  -1.04707
 Alpha  occ. eigenvalues --   -0.98965  -0.95018  -0.90584  -0.88818  -0.87454
 Alpha  occ. eigenvalues --   -0.82878  -0.78341  -0.77273  -0.76457  -0.76337
 Alpha  occ. eigenvalues --   -0.74869  -0.73631  -0.70611  -0.68901  -0.68421
 Alpha  occ. eigenvalues --   -0.67850  -0.64743  -0.64538  -0.63249  -0.62256
 Alpha  occ. eigenvalues --   -0.61483  -0.59968  -0.59014  -0.56960  -0.56132
 Alpha  occ. eigenvalues --   -0.55239  -0.54545  -0.54468  -0.54196  -0.52829
 Alpha  occ. eigenvalues --   -0.52260  -0.50642  -0.48979  -0.41182
 Alpha virt. eigenvalues --   -0.14157  -0.10586  -0.07318  -0.05380  -0.04902
 Alpha virt. eigenvalues --   -0.04455  -0.03616  -0.03054  -0.02817  -0.02701
 Alpha virt. eigenvalues --   -0.01667  -0.01467  -0.01146  -0.00778  -0.00199

 Mulliken charges:
               1
     1  C    0.919305
     2  C    0.780811
     3  N   -0.435597
     4  C    1.190479
     5  C    0.671539
     6  C    1.248748
     7  C    0.652878
     8  N   -0.068457
     9  C    0.737929
    10  C    0.195961
    11  C    1.145702
    12  C    0.841809
    13  H   -0.803342
    14  H   -0.440357
    15  H   -0.376379
    16  H   -0.329167
    17  H   -0.280721
    18  H   -0.380079
    19  H   -0.528538
    20  H   -0.959236
    21  H   -0.633324
    22  H    0.065902
    23  H   -0.821442
    24  H   -0.339642
    25  H   -0.167581
    26  H   -0.232781
    27  H   -0.583001
    28  O   -0.436626
    29  H    0.248526
    30  H    0.143884
    31  O   -0.334450
    32  H    0.153919
    33  H    0.153329
 Sum of Mulliken charges =   1.00000

 Dipole moment (field-independent basis, Debye):
    X=              8.7578    Y=              0.2953    Z=             -0.2389  Tot=              8.7661
 Quadrupole moment (field-independent basis, Debye-Ang):
   XX=             -2.0954   YY=            -64.9267   ZZ=            -76.0980
   XY=             -8.4379   XZ=             -0.0137   YZ=              3.3589

  Exact polarizability: 177.114  11.348 136.273   1.341   8.811 122.637
 Approx polarizability: 173.032   4.485 158.533  -2.744  16.630 138.329

                      1                      2                      3
                      A                      A                      A
 Frequencies --     16.7034                17.6182                32.3133
 Red. masses --      4.4446                 3.6523                 3.3154
 Frc consts  --      0.0007                 0.0007                 0.0020
 IR Inten    --      0.2330                 0.1038                 0.9814

                      4                      5                      6
                      A                      A                      A
 Frequencies --     35.1802                41.2099                97.0647
 Red. masses --      3.8369                 3.7837                 3.6830
 Frc consts  --      0.0028                 0.0038                 0.0204
 IR Inten    --      0.2131                 1.4035                 1.4471

                      7                      8                      9
                      A                      A                      A
 Frequencies --    104.3921               109.0728               162.7203
 Red. masses --      1.0965                 3.4737                 1.9861
 Frc consts  --      0.0070                 0.0243                 0.0310
 IR Inten    --     36.7248                 1.4204                 0.6610

                     10                     11                     12
                      A                      A                      A
 Frequencies --    186.8354               193.8843               204.9434
 Red. masses --      2.8937                 4.8654                 1.1271
 Frc consts  --      0.0595                 0.1078                 0.0279
 IR Inten    --      0.6138                30.3534                56.2729

                     13                     14                     15
                      A                      A                      A
 Frequencies --    210.8724               245.8364               265.1883
 Red. masses --      1.1599                 1.1363                 2.7020
 Frc consts  --      0.0304                 0.0405                 0.1120
 IR Inten    --    234.8168                 1.1146                 1.2805

                     16                     17                     18
                      A                      A                      A
 Frequencies --    278.2340               294.9025               320.1609
 Red. masses --      1.0740                 4.4102                 4.7146
 Frc consts  --      0.0490                 0.2260                 0.2847
 IR Inten    --     39.5626                 7.9278                13.3688

                     19                     20                     21
                      A                      A                      A
 Frequencies --    358.7639               412.6289               417.0377
 Red. masses --      2.7687                 2.8520                 3.1016
 Frc consts  --      0.2100                 0.2861                 0.3178
 IR Inten    --      6.0569                 2.0020                 2.3606

                     22                     23                     24
                      A                      A                      A
 Frequencies --    512.0564               554.5310               593.8115
 Red. masses --      1.2273                 3.1124                 3.0777
 Frc consts  --      0.1896                 0.5639                 0.6394
 IR Inten    --     15.4157                10.0370                 2.9558

                     25                     26                     27
                      A                      A                      A
 Frequencies --    637.2653               646.1887               665.3025
 Red. masses --      5.4073                 3.2404                 4.2310
 Frc consts  --      1.2938                 0.7972                 1.1034
 IR Inten    --     23.3901                 2.5586                 2.1063

                     28                     29                     30
                      A                      A                      A
 Frequencies --    709.4957               774.3274               795.1028
 Red. masses --      1.9874                 1.8025                 1.0491
 Frc consts  --      0.5894                 0.6367                 0.3908
 IR Inten    --     36.4025                 1.8219               104.7467

                     31                     32                     33
                      A                      A                      A
 Frequencies --    838.9594               854.6942               921.7114
 Red. masses --      1.6175                 1.9763                 1.6997
 Frc consts  --      0.6708                 0.8506                 0.8508
 IR Inten    --     31.4257                 8.5313                11.1696

                     34                     35                     36
                      A                      A                      A
 Frequencies --    935.6405               946.3644               968.7052
 Red. masses --      3.3959                 1.5501                 2.1678
 Frc consts  --      1.7515                 0.8180                 1.1986
 IR Inten    --      3.8000                 7.9642                 2.3094

                     37                     38                     39
                      A                      A                      A
 Frequencies --    983.6004              1000.4331              1045.0837
 Red. masses --      1.4577                 1.8713                 2.5587
 Frc consts  --      0.8309                 1.1035                 1.6465
 IR Inten    --      2.6295                 1.0494                 1.3297

                     40                     41                     42
                      A                      A                      A
 Frequencies --   1045.4422              1061.7902              1080.3062
 Red. masses --      1.7443                 2.3262                 1.6827
 Frc consts  --      1.1232                 1.5452                 1.1571
 IR Inten    --      1.4263                 2.2936                17.5813

                     43                     44                     45
                      A                      A                      A
 Frequencies --   1085.7879              1111.2854              1136.4245
 Red. masses --      2.1257                 2.1725                 1.4095
 Frc consts  --      1.4766                 1.5807                 1.0725
 IR Inten    --      2.0413                10.6257                10.5241

                     46                     47                     48
                      A                      A                      A
 Frequencies --   1137.9031              1197.0858              1206.4422
 Red. masses --      1.3263                 1.4872                 1.2667
 Frc consts  --      1.0118                 1.2556                 1.0862
 IR Inten    --      1.2962                10.0027                 6.4096

                     49                     50                     51
                      A                      A                      A
 Frequencies --   1209.4184              1219.6166              1242.9549
 Red. masses --      1.0908                 1.6024                 1.6205
 Frc consts  --      0.9401                 1.4043                 1.4751
 IR Inten    --     32.1514                 9.8772                10.2493

                     52                     53                     54
                      A                      A                      A
 Frequencies --   1257.4787              1271.7964              1291.1782
 Red. masses --      1.6605                 1.8352                 1.8305
 Frc consts  --      1.5470                 1.7490                 1.7980
 IR Inten    --      6.9077                19.4171                 8.7227

                     55                     56                     57
                      A                      A                      A
 Frequencies --   1303.8891              1321.9421              1329.7533
 Red. masses --      1.4413                 1.5718                 1.3502
 Frc consts  --      1.4438                 1.6184                 1.4066
 IR Inten    --     10.9145                13.8923                 4.4889

                     58                     59                     60
                      A                      A                      A
 Frequencies --   1347.3459              1354.7510              1378.9029
 Red. masses --      1.4940                 1.8980                 1.9524
 Frc consts  --      1.5980                 2.0525                 2.1871
 IR Inten    --      4.6256                 5.7706                24.5501

                     61                     62                     63
                      A                      A                      A
 Frequencies --   1390.0468              1439.5537              1453.1436
 Red. masses --      1.6509                 1.6673                 1.3447
 Frc consts  --      1.8794                 2.0358                 1.6730
 IR Inten    --     11.9363                11.4653                 2.5733

                     64                     65                     66
                      A                      A                      A
 Frequencies --   1478.5190              1483.5527              1488.7137
 Red. masses --      1.0451                 1.0729                 1.0789
 Frc consts  --      1.3460                 1.3913                 1.4089
 IR Inten    --     12.0385                 6.8126                 3.3593

                     67                     68                     69
                      A                      A                      A
 Frequencies --   1503.1375              1514.6613              1521.5828
 Red. masses --      1.0885                 1.9555                 1.1983
 Frc consts  --      1.4491                 2.6433                 1.6346
 IR Inten    --     11.1293                29.3761                 6.0194

                     70                     71                     72
                      A                      A                      A
 Frequencies --   1618.2978              1630.4697              1660.6958
 Red. masses --      2.1833                 1.0918                 1.0905
 Frc consts  --      3.3688                 1.7101                 1.7720
 IR Inten    --     44.9738                93.6306                 7.8878

                     73                     74                     75
                      A                      A                      A
 Frequencies --   1699.0630              1711.6057              2930.3840
 Red. masses --      4.4354                 3.1142                 1.0821
 Frc consts  --      7.5440                 5.3753                 5.4748
 IR Inten    --      8.4843                 5.9692                30.8965

                     76                     77                     78
                      A                      A                      A
 Frequencies --   2957.1177              2963.7804              3031.5809
 Red. masses --      1.0715                 1.0568                 1.0962
 Frc consts  --      5.5207                 5.4692                 5.9359
 IR Inten    --     50.0036                82.2326              2489.6885

                     79                     80                     81
                      A                      A                      A
 Frequencies --   3087.6880              3091.0555              3102.0589
 Red. masses --      1.0620                 1.0807                 1.0648
 Frc consts  --      5.9656                 6.0836                 6.0370
 IR Inten    --     17.1822                29.0566                19.8965

                     82                     83                     84
                      A                      A                      A
 Frequencies --   3123.3529              3137.6701              3146.8191
 Red. masses --      1.0901                 1.1055                 1.1016
 Frc consts  --      6.2657                 6.4123                 6.4269
 IR Inten    --     20.2849                 3.9523                15.4634

                     85                     86                     87
                      A                      A                      A
 Frequencies --   3161.2572              3221.4106              3241.7833
 Red. masses --      1.1062                 1.0921                 1.0955
 Frc consts  --      6.5133                 6.6774                 6.7831
 IR Inten    --     22.8237                 1.3303                 1.3698

                     88                     89                     90
                      A                      A                      A
 Frequencies --   3243.4693              3260.3448              3554.1535
 Red. masses --      1.0936                 1.0999                 1.0613
 Frc consts  --      6.7784                 6.8887                 7.8986
 IR Inten    --      2.5913                 2.3462               900.6227

                     91                     92                     93
                      A                      A                      A
 Frequencies --   3874.1111              3946.7466              3978.5105
 Red. masses --      1.0452                 1.0686                 1.0831
 Frc consts  --      9.2422                 9.8069                10.1005
 IR Inten    --     33.9472               113.3215               119.5318

 - Thermochemistry -
 -------------------
 Temperature   298.150 Kelvin.  Pressure   1.00000 Atm.
 Atom     1 has atomic number  6 and mass  12.00000

 Molecular mass:   199.14465 amu.
 Principal axes and moments of inertia in atomic units:
                           1         2         3
     Eigenvalues --  1596.447757296.622307634.21998
           X            1.00000  -0.00103   0.00029
           Y            0.00104   0.99981  -0.01963
           Z           -0.00027   0.01963   0.99981
 This molecule is an asymmetric top.
 Rotational symmetry number  1.
 Warning -- assumption of classical behavior for rotation
           may cause significant error
 Rotational temperatures (Kelvin)      0.05425     0.01187     0.01135
 Rotational constants (GHZ):           1.13047     0.24734     0.23640
 Zero-point vibrational energy     763377.0 (Joules/Mol)
                                  182.45148 (Kcal/Mol)
 Warning -- explicit consideration of  24 degrees of freedom as
           vibrations may cause significant error
 Vibrational temperatures:     24.03    25.35    46.49    50.62    59.29
          (Kelvin)            139.65   150.20   156.93   234.12   268.81
                              278.96   294.87   303.40   353.70   381.55
                              400.32   424.30   460.64   516.18   593.68
                              600.02   736.73   797.85   854.36   916.88
                              929.72   957.22  1020.81  1114.08  1143.98
                             1207.08  1229.71  1326.14  1346.18  1361.61
                             1393.75  1415.18  1439.40  1503.64  1504.16
                             1527.68  1554.32  1562.21  1598.89  1635.06
                             1637.19  1722.34  1735.80  1740.08  1754.76
                             1788.33  1809.23  1829.83  1857.72  1876.01
                             1901.98  1913.22  1938.53  1949.18  1983.93
                             1999.97  2071.20  2090.75  2127.26  2134.50
                             2141.93  2162.68  2179.26  2189.22  2328.37
                             2345.88  2389.37  2444.57  2462.62  4216.17
                             4254.63  4264.22  4361.77  4442.49  4447.34
                             4463.17  4493.81  4514.41  4527.57  4548.34
                             4634.89  4664.20  4666.63  4690.91  5113.63
                             5573.98  5678.49  5724.19

 Zero-point correction=                           0.290755 (Hartree/Particle)
 Thermal correction to Energy=                    0.308299
 Thermal correction to Enthalpy=                  0.309243
 Thermal correction to Gibbs Free Energy=         0.241593
 Sum of electronic and zero-point Energies=           -651.860414
 Sum of electronic and thermal Energies=              -651.842870
 Sum of electronic and thermal Enthalpies=            -651.841926
 Sum of electronic and thermal Free Energies=         -651.909576

                     E (Thermal)             CV                S
                      KCal/Mol        Cal/Mol-Kelvin    Cal/Mol-Kelvin
 Total                  193.461             61.526            142.381
 Electronic               0.000              0.000              0.000
 Translational            0.889              2.981             41.771
 Rotational               0.889              2.981             32.853
 Vibrational            191.683             55.565             67.757
 Vibration     1          0.593              1.986              6.992
 Vibration     2          0.593              1.986              6.886
 Vibration     3          0.594              1.983              5.682
 Vibration     4          0.594              1.982              5.514
 Vibration     5          0.594              1.981              5.200
 Vibration     6          0.603              1.951              3.512
 Vibration     7          0.605              1.946              3.371
 Vibration     8          0.606              1.942              3.285
 Vibration     9          0.623              1.888              2.518
 Vibration    10          0.632              1.858              2.259
 Vibration    11          0.635              1.848              2.190
 Vibration    12          0.640              1.833              2.088
 Vibration    13          0.643              1.824              2.036
 Vibration    14          0.660              1.770              1.760
 Vibration    15          0.671              1.737              1.627
 Vibration    16          0.679              1.714              1.545
 Vibration    17          0.689              1.683              1.446
 Vibration    18          0.706              1.635              1.309
 Vibration    19          0.734              1.557              1.127
 Vibration    20          0.776              1.443              0.917
 Vibration    21          0.780              1.433              0.902
 Vibration    22          0.867              1.223              0.629
 Vibration    23          0.910              1.130              0.535
 Vibration    24          0.951              1.045              0.460

                           ! Non-Optimized Parameters !
 Normal termination of Gaussian 16 at Tue Jan 24 17:46:45 2023.
