 Gaussian 16, Revision A.03,
 Gaussian 16:  ES64L-G16RevA.03 25-Dec-2016

 -----------------------------------------
 # wB97XD/aug-cc-pVDZ Temperature=130 Freq
 -----------------------------------------

 ---------------------------
 p-Py Nicotine, S anti, 2H2O
 ---------------------------
 Symbolic Z-matrix:
 Charge =  1 Multiplicity = 1

                         Standard orientation:
 ---------------------------------------------------------------------
 Center     Atomic      Atomic             Coordinates (Angstroms)
 Number     Number       Type             X           Y           Z
 ---------------------------------------------------------------------
      1          7           0        2.123410   -0.880368    0.697537
      2          6           0        2.089786    0.362073   -0.064132
      3          6           0        2.527268   -0.024309   -1.508743
      4          6           0        2.695939   -1.551203   -1.459522
      5          6           0        3.024254   -1.799388    0.005802
      6          6           0        0.715056    0.997815   -0.022870
      7          6           0       -0.403721    0.245940    0.304953
      8          7           0       -1.626111    0.801269    0.302165
      9          6           0       -1.839980    2.088560   -0.009831
     10          6           0       -0.766725    2.895652   -0.341700
     11          6           0        0.513319    2.344478   -0.343392
     12          8           0       -3.773306   -0.670073    0.937983
     13          1           0        2.836544   -2.829608    0.331857
     14          1           0        3.477055   -1.906724   -2.139340
     15          1           0        1.757619   -2.056570   -1.721804
     16          1           0        3.482808    0.461010   -1.738219
     17          1           0        1.804511    0.299465   -2.266303
     18          1           0        4.087031   -1.562846    0.213060
     19          1           0        2.802531    1.104016    0.344618
     20          1           0       -0.324048   -0.803701    0.578039
     21          1           0       -2.870928    2.431999    0.021631
     22          1           0       -0.934007    3.941088   -0.589898
     23          1           0        1.369958    2.970482   -0.596333
     24          6           0        2.407471   -0.702132    2.109310
     25          1           0       -2.450525    0.206720    0.558301
     26          1           0       -4.129394   -0.825492    1.815418
     27          1           0       -4.315212   -1.193368    0.312288
     28          8           0       -5.227055   -2.080306   -0.868072
     29          1           0       -6.094840   -1.816155   -1.185870
     30          1           0       -5.181033   -3.032898   -0.987141
     31          1           0        1.651981   -0.051125    2.570524
     32          1           0        3.403680   -0.251693    2.284686
     33          1           0        2.372070   -1.672799    2.618034
 ---------------------------------------------------------------------

 SCF Done:  E(RwB97XD) =  -652.152011421     A.U. after   14 cycles

 The electronic state is 1-A.
 Alpha  occ. eigenvalues --  -19.41501 -19.40529 -14.67727 -14.55200 -10.50991
 Alpha  occ. eigenvalues --  -10.50191 -10.47549 -10.46809 -10.46700 -10.45278
 Alpha  occ. eigenvalues --  -10.41611 -10.41608 -10.40685 -10.39421  -1.26251
 Alpha  occ. eigenvalues --   -1.25744  -1.24354  -1.15628  -1.07980  -1.04299
 Alpha  occ. eigenvalues --   -0.99380  -0.95131  -0.90497  -0.88888  -0.87524
 Alpha  occ. eigenvalues --   -0.82346  -0.78722  -0.77861  -0.76248  -0.76205
 Alpha  occ. eigenvalues --   -0.74162  -0.73581  -0.70366  -0.69083  -0.68764
 Alpha  occ. eigenvalues --   -0.67503  -0.64592  -0.64146  -0.63707  -0.62204
 Alpha  occ. eigenvalues --   -0.61344  -0.60711  -0.58838  -0.57213  -0.56418
 Alpha  occ. eigenvalues --   -0.55306  -0.54508  -0.54401  -0.54220  -0.52670
 Alpha  occ. eigenvalues --   -0.52529  -0.51317  -0.48732  -0.41141
 Alpha virt. eigenvalues --   -0.14004  -0.10354  -0.07162  -0.05507  -0.04588
 Alpha virt. eigenvalues --   -0.04452  -0.03791  -0.03037  -0.02924  -0.02613
 Alpha virt. eigenvalues --   -0.01690  -0.01480  -0.01072  -0.00601  -0.00264

 Mulliken charges:
               1
     1  N   -0.391016
     2  C    0.937002
     3  C    0.951042
     4  C    0.597395
     5  C    1.160221
     6  C    0.706092
     7  C    0.714876
     8  N    0.010141
     9  C    0.743749
    10  C    0.288649
    11  C    1.161455
    12  O   -0.436049
    13  H   -0.510002
    14  H   -0.261899
    15  H   -0.377766
    16  H   -0.367037
    17  H   -0.444920
    18  H   -0.459871
    19  H   -0.531243
    20  H   -0.967576
    21  H   -0.649353
    22  H   -0.558362
    23  H   -0.870976
    24  C    0.792296
    25  H    0.067902
    26  H    0.142777
    27  H    0.251363
    28  O   -0.336306
    29  H    0.152342
    30  H    0.155474
    31  H   -0.283708
    32  H   -0.169121
    33  H   -0.217572
 Sum of Mulliken charges =   1.00000

 Dipole moment (field-independent basis, Debye):
    X=             -6.9411    Y=              0.8450    Z=             -0.2627  Tot=              6.9973
 Quadrupole moment (field-independent basis, Debye-Ang):
   XX=            -17.2640   YY=            -55.1251   ZZ=            -76.9001
   XY=             12.4398   XZ=              1.2683   YZ=             -0.2900

  Exact polarizability: 164.691 -13.803 150.000  -3.504  -5.994 119.118
 Approx polarizability: 170.564  -4.263 167.343  -4.090  -8.723 130.785

                      1                      2                      3
                      A                      A                      A
 Frequencies --     15.4633                21.6655                30.1911
 Red. masses --      4.5593                 3.4744                 3.0196
 Frc consts  --      0.0006                 0.0010                 0.0016
 IR Inten    --      0.9197                 0.2582                 0.5804

                      4                      5                      6
                      A                      A                      A
 Frequencies --     35.6746                38.3602                96.4614
 Red. masses --      4.8135                 4.3309                 4.0720
 Frc consts  --      0.0036                 0.0038                 0.0223
 IR Inten    --      0.3800                 0.8947                 1.8185

                      7                      8                      9
                      A                      A                      A
 Frequencies --    105.7318               120.8898               161.1962
 Red. masses --      1.0472                 3.4627                 3.5084
 Frc consts  --      0.0069                 0.0298                 0.0537
 IR Inten    --     37.7396                 1.5968                 3.8710

                     10                     11                     12
                      A                      A                      A
 Frequencies --    199.2033               204.2525               216.2192
 Red. masses --      5.0371                 1.1043                 1.6333
 Frc consts  --      0.1178                 0.0271                 0.0450
 IR Inten    --     32.1113                57.7946                 0.1620

                     13                     14                     15
                      A                      A                      A
 Frequencies --    222.1792               247.1236               275.8252
 Red. masses --      1.1777                 1.1933                 1.5503
 Frc consts  --      0.0343                 0.0429                 0.0695
 IR Inten    --    226.3390                 1.2877                19.7109

                     16                     17                     18
                      A                      A                      A
 Frequencies --    278.1519               296.5712               307.5850
 Red. masses --      1.5526                 3.5587                 4.8917
 Frc consts  --      0.0708                 0.1844                 0.2727
 IR Inten    --     23.1618                 1.4772                15.4934

                     19                     20                     21
                      A                      A                      A
 Frequencies --    356.3556               415.0279               430.0498
 Red. masses --      2.7276                 2.8929                 3.1605
 Frc consts  --      0.2041                 0.2936                 0.3444
 IR Inten    --      9.7385                 1.9107                 0.8215

                     22                     23                     24
                      A                      A                      A
 Frequencies --    510.1221               544.7684               583.7462
 Red. masses --      1.4027                 2.3655                 2.2700
 Frc consts  --      0.2151                 0.4136                 0.4558
 IR Inten    --     11.1047                20.1628                 0.9744

                     25                     26                     27
                      A                      A                      A
 Frequencies --    615.7066               643.1249               661.1222
 Red. masses --      4.0549                 5.4930                 3.5109
 Frc consts  --      0.9057                 1.3386                 0.9041
 IR Inten    --      8.8583                12.1114                 2.4688

                     28                     29                     30
                      A                      A                      A
 Frequencies --    712.9361               781.9110               793.6080
 Red. masses --      2.0352                 2.5933                 1.0548
 Frc consts  --      0.6095                 0.9342                 0.3914
 IR Inten    --     35.9104                 7.9005               100.9118

                     31                     32                     33
                      A                      A                      A
 Frequencies --    837.3467               873.9196               900.9232
 Red. masses --      1.4886                 2.0698                 1.8401
 Frc consts  --      0.6150                 0.9314                 0.8800
 IR Inten    --     33.3502                 3.7605                 8.1451

                     34                     35                     36
                      A                      A                      A
 Frequencies --    938.1138               962.1371               973.6385
 Red. masses --      3.1031                 1.9755                 1.9494
 Frc consts  --      1.6090                 1.0775                 1.0888
 IR Inten    --      4.3123                 3.5404                 3.0994

                     37                     38                     39
                      A                      A                      A
 Frequencies --    979.4189               991.8681              1034.8030
 Red. masses --      1.3152                 1.6003                 1.3838
 Frc consts  --      0.7433                 0.9276                 0.8730
 IR Inten    --      6.1797                 1.1104                 0.2938

                     40                     41                     42
                      A                      A                      A
 Frequencies --   1043.0966              1062.1408              1077.2913
 Red. masses --      3.6027                 2.0635                 1.7700
 Frc consts  --      2.3096                 1.3716                 1.2103
 IR Inten    --      1.9015                 6.3412                16.4443

                     43                     44                     45
                      A                      A                      A
 Frequencies --   1082.9643              1106.6943              1136.2786
 Red. masses --      2.2012                 1.8092                 1.2806
 Frc consts  --      1.5210                 1.3055                 0.9741
 IR Inten    --      4.3404                 7.9022                 6.2339

                     46                     47                     48
                      A                      A                      A
 Frequencies --   1139.6606              1179.5865              1204.7810
 Red. masses --      1.4926                 1.4324                 1.1771
 Frc consts  --      1.1422                 1.1743                 1.0066
 IR Inten    --      3.7505                 6.3349                 8.7135

                     49                     50                     51
                      A                      A                      A
 Frequencies --   1210.2791              1211.4718              1231.1663
 Red. masses --      1.3743                 1.2366                 2.0017
 Frc consts  --      1.1861                 1.0693                 1.7877
 IR Inten    --      6.5008                29.2058                18.3374

                     52                     53                     54
                      A                      A                      A
 Frequencies --   1257.3483              1268.3483              1284.6592
 Red. masses --      1.8284                 1.5877                 1.8061
 Frc consts  --      1.7030                 1.5048                 1.7562
 IR Inten    --     12.5424                10.6450                28.7690

                     55                     56                     57
                      A                      A                      A
 Frequencies --   1295.2761              1308.3907              1340.1164
 Red. masses --      1.4247                 1.3742                 1.7032
 Frc consts  --      1.4083                 1.3860                 1.8022
 IR Inten    --      8.6583                 1.6584                 9.5345

                     58                     59                     60
                      A                      A                      A
 Frequencies --   1347.6866              1362.6298              1373.0679
 Red. masses --      1.4151                 2.7783                 1.6630
 Frc consts  --      1.5143                 3.0394                 1.8472
 IR Inten    --      0.2620                18.1607                10.5352

                     61                     62                     63
                      A                      A                      A
 Frequencies --   1391.8086              1429.2696              1453.4019
 Red. masses --      1.7251                 1.8093                 1.2118
 Frc consts  --      1.9689                 2.1777                 1.5081
 IR Inten    --      7.5392                46.4000                 4.5836

                     64                     65                     66
                      A                      A                      A
 Frequencies --   1478.0634              1483.3776              1491.7295
 Red. masses --      1.0485                 1.0873                 1.0692
 Frc consts  --      1.3496                 1.4096                 1.4018
 IR Inten    --     10.9422                 8.8927                 8.7562

                     67                     68                     69
                      A                      A                      A
 Frequencies --   1499.4771              1509.2554              1519.5762
 Red. masses --      1.0914                 2.2588                 1.1272
 Frc consts  --      1.4458                 3.0315                 1.5335
 IR Inten    --      7.3789                25.4310                 1.1192

                     70                     71                     72
                      A                      A                      A
 Frequencies --   1618.4887              1628.3626              1660.6421
 Red. masses --      2.0780                 1.0988                 1.0989
 Frc consts  --      3.2071                 1.7166                 1.7855
 IR Inten    --     45.1336                98.9005                 8.3742

                     73                     74                     75
                      A                      A                      A
 Frequencies --   1695.3306              1711.3289              2967.1706
 Red. masses --      4.7316                 3.1191                 1.0754
 Frc consts  --      8.0125                 5.3821                 5.5782
 IR Inten    --     11.3610                 7.3202                44.1663

                     76                     77                     78
                      A                      A                      A
 Frequencies --   2971.2787              2974.6818              3038.3822
 Red. masses --      1.0758                 1.0576                 1.0962
 Frc consts  --      5.5956                 5.5138                 5.9623
 IR Inten    --     21.9007               110.9446              2256.2000

                     79                     80                     81
                      A                      A                      A
 Frequencies --   3083.7416              3086.4800              3092.8476
 Red. masses --      1.0652                 1.0833                 1.0627
 Frc consts  --      5.9679                 6.0801                 5.9891
 IR Inten    --     18.5229                30.3081                18.6279

                     82                     83                     84
                      A                      A                      A
 Frequencies --   3120.0044              3141.2699              3141.7340
 Red. masses --      1.0919                 1.1047                 1.1019
 Frc consts  --      6.2625                 6.4223                 6.4081
 IR Inten    --     26.6431                 7.0496                19.5749

                     85                     86                     87
                      A                      A                      A
 Frequencies --   3158.3138              3209.2677              3245.6992
 Red. masses --      1.1043                 1.0923                 1.0930
 Frc consts  --      6.4902                 6.6286                 6.7841
 IR Inten    --     23.1286                 0.3311                 1.6869

                     88                     89                     90
                      A                      A                      A
 Frequencies --   3248.5012              3261.3109              3556.6576
 Red. masses --      1.0951                 1.1003                 1.0613
 Frc consts  --      6.8086                 6.8952                 7.9098
 IR Inten    --     10.3912                 2.3192               877.9249

                     91                     92                     93
                      A                      A                      A
 Frequencies --   3873.9093              3949.9280              3978.2183
 Red. masses --      1.0452                 1.0686                 1.0830
 Frc consts  --      9.2414                 9.8234                10.0985
 IR Inten    --     32.7533               112.4402               117.8459

 - Thermochemistry -
 -------------------
 Temperature   130.000 Kelvin.  Pressure   1.00000 Atm.
 Atom     1 has atomic number  7 and mass  14.00307

 Molecular mass:   199.14465 amu.
 Principal axes and moments of inertia in atomic units:
                           1         2         3
     Eigenvalues --  2350.487655740.192116758.14991
           X            0.99999   0.00436   0.00162
           Y           -0.00435   0.99999  -0.00332
           Z           -0.00163   0.00331   0.99999
 This molecule is an asymmetric top.
 Rotational symmetry number  1.
 Warning -- assumption of classical behavior for rotation
           may cause significant error
 Rotational temperatures (Kelvin)      0.03685     0.01509     0.01282
 Rotational constants (GHZ):           0.76782     0.31440     0.26705
 Zero-point vibrational energy     763252.4 (Joules/Mol)
                                  182.42170 (Kcal/Mol)
 Warning -- explicit consideration of  14 degrees of freedom as
           vibrations may cause significant error
 Vibrational temperatures:     22.25    31.17    43.44    51.33    55.19
          (Kelvin)            138.79   152.12   173.93   231.93   286.61
                              293.87   311.09   319.67   355.56   396.85
                              400.20   426.70   442.55   512.72   597.13
                              618.75   733.95   783.80   839.88   885.86
                              925.31   951.21  1025.76  1125.00  1141.82
                             1204.76  1257.38  1296.23  1349.74  1384.30
                             1400.85  1409.17  1427.08  1488.85  1500.78
                             1528.18  1549.98  1558.14  1592.29  1634.85
                             1639.72  1697.16  1733.41  1741.32  1743.04
                             1771.37  1809.04  1824.87  1848.34  1863.61
                             1882.48  1928.13  1939.02  1960.52  1975.54
                             2002.50  2056.40  2091.12  2126.60  2134.25
                             2146.27  2157.41  2171.48  2186.33  2328.64
                             2342.85  2389.29  2439.20  2462.22  4269.10
                             4275.01  4279.90  4371.55  4436.82  4440.76
                             4449.92  4488.99  4519.59  4520.25  4544.11
                             4617.42  4669.84  4673.87  4692.30  5117.24
                             5573.69  5683.07  5723.77

 Zero-point correction=                           0.290707 (Hartree/Particle)
 Thermal correction to Energy=                    0.295304
 Thermal correction to Enthalpy=                  0.295715
 Thermal correction to Gibbs Free Energy=         0.274628
 Sum of electronic and zero-point Energies=           -651.861304
 Sum of electronic and thermal Energies=              -651.856708
 Sum of electronic and thermal Enthalpies=            -651.856296
 Sum of electronic and thermal Free Energies=         -651.877383

                     E (Thermal)             CV                S
                      KCal/Mol        Cal/Mol-Kelvin    Cal/Mol-Kelvin
 Total                  185.306             34.914            101.789
 Electronic               0.000              0.000              0.000
 Translational            0.388              2.981             37.648
 Rotational               0.388              2.981             30.403
 Vibrational            184.531             28.952             33.738
 Vibration     1          0.259              1.982              5.498
 Vibration     2          0.260              1.978              4.830
 Vibration     3          0.261              1.969              4.175
 Vibration     4          0.262              1.962              3.847
 Vibration     5          0.262              1.958              3.705
 Vibration     6          0.282              1.809              1.949
 Vibration     7          0.287              1.775              1.785
 Vibration     8          0.296              1.716              1.551
 Vibration     9          0.323              1.534              1.081
 Vibration    10          0.355              1.346              0.775
 Vibration    11          0.360              1.320              0.742
 Vibration    12          0.371              1.259              0.668
 Vibration    13          0.377              1.229              0.635
 Vibration    14          0.402              1.103              0.510

 Normal termination of Gaussian 16 at Wed Aug 26 20:22:15 2020.
