 Gaussian 16, Revision A.03,
 Gaussian 16:  ES64L-G16RevA.03 25-Dec-2016

 --------------------------------------------------------------
 # wB97XD/aug-cc-pVDZ Geom=AllCheck Opt=(CalcFC,ReCalc=50) Freq
 --------------------------------------------------------------

 Structure from the checkpoint file:  "NicPyrNa2h2.chk"
 ----------------------------
 p-Pyr Nicotine, N anti, 2H2O
 ----------------------------
 Charge =  1 Multiplicity = 1

 SCF Done:  E(RwB97XD) =  -652.160981748     A.U. after   14 cycles
 Optimization completed.
    -- Stationary point found.
 Normal termination of Gaussian 16 at Tue Jul 21 09:36:59 2020.

 ----------------------------------------------------------------------
 #N Geom=AllCheck Guess=TCheck SCRF=Check GenChk RwB97XD/Aug-CC-pVDZ Fr
 eq
 ----------------------------------------------------------------------

 Structure from the checkpoint file:  "NicPyrNa2h2.chk"
 ----------------------------
 p-Pyr Nicotine, N anti, 2H2O
 ----------------------------
 Charge =  1 Multiplicity = 1

                         Standard orientation:
 ---------------------------------------------------------------------
 Center     Atomic      Atomic             Coordinates (Angstroms)
 Number     Number       Type             X           Y           Z
 ---------------------------------------------------------------------
      1          6           0        1.172902    0.121482   -0.658528
      2          6           0        0.522225   -1.039784   -0.243191
      3          6           0        1.307175   -2.071728    0.271130
      4          6           0        2.685004   -1.894315    0.353560
      5          6           0        3.226612   -0.674706   -0.047730
      6          7           0        2.484722    0.322282   -0.542044
      7          6           0       -0.979732   -1.123996   -0.304432
      8          6           0       -1.656723   -0.782000   -1.651897
      9          6           0       -2.824436    0.171850   -1.314611
     10          6           0       -3.007725    0.031108    0.191312
     11          7           0       -1.610661   -0.157537    0.681523
     12          8           0       -0.625088    2.398810    0.632273
     13          1           0       -3.578097   -0.866263    0.462971
     14          1           0       -3.743336   -0.075379   -1.853649
     15          1           0       -2.558694    1.207205   -1.557907
     16          1           0       -0.948364   -0.319848   -2.345337
     17          1           0       -2.009088   -1.706155   -2.120816
     18          1           0       -3.447757    0.902895    0.685217
     19          1           0       -1.301539   -2.117299    0.034027
     20          1           0        0.606984    0.949345   -1.090345
     21          1           0        4.297516   -0.487325    0.033721
     22          1           0        3.331785   -2.680202    0.738742
     23          1           0        0.850613   -3.005422    0.603116
     24          6           0       -1.496811   -0.574801    2.095472
     25          1           0       -1.141945    0.778290    0.604994
     26          1           0       -1.015199    3.117515    1.134809
     27          1           0        0.284531    2.695127    0.395637
     28          8           0        1.903176    3.027481   -0.056397
     29          1           0        2.447844    2.265222   -0.326475
     30          1           0        2.295641    3.814925   -0.438943
     31          1           0       -1.959607    0.188447    2.727844
     32          1           0       -0.437504   -0.669462    2.351758
     33          1           0       -2.007863   -1.533826    2.230778
 ---------------------------------------------------------------------

 SCF Done:  E(RwB97XD) =  -652.160981748     A.U. after    1 cycles

 The electronic state is 1-A.
 Alpha  occ. eigenvalues --  -19.40484 -19.38838 -14.69624 -14.58768 -10.50438
 Alpha  occ. eigenvalues --  -10.49089 -10.48792 -10.47053 -10.46551 -10.45642
 Alpha  occ. eigenvalues --  -10.45528 -10.44452 -10.44302 -10.43859  -1.26322
 Alpha  occ. eigenvalues --   -1.24714  -1.22842  -1.18579  -1.06945  -1.05155
 Alpha  occ. eigenvalues --   -1.01818  -0.97341  -0.95046  -0.89457  -0.86325
 Alpha  occ. eigenvalues --   -0.85959  -0.83636  -0.78554  -0.76245  -0.75535
 Alpha  occ. eigenvalues --   -0.74330  -0.73442  -0.72301  -0.70851  -0.69140
 Alpha  occ. eigenvalues --   -0.67414  -0.66108  -0.65705  -0.63853  -0.63223
 Alpha  occ. eigenvalues --   -0.62724  -0.62350  -0.61688  -0.60525  -0.59666
 Alpha  occ. eigenvalues --   -0.58315  -0.57786  -0.57104  -0.55907  -0.54219
 Alpha  occ. eigenvalues --   -0.52130  -0.50303  -0.48182  -0.47150
 Alpha virt. eigenvalues --   -0.09989  -0.09229  -0.07245  -0.06160  -0.05277
 Alpha virt. eigenvalues --   -0.05068  -0.03576  -0.03462  -0.03203  -0.02997
 Alpha virt. eigenvalues --   -0.02638  -0.01905  -0.01301  -0.01195  -0.00550

 Mulliken charges:
               1
     1  C    0.500651
     2  C    1.326288
     3  C    1.076149
     4  C    0.625443
     5  C    0.184866
     6  N   -0.348241
     7  C    0.734867
     8  C    1.165518
     9  C    0.711337
    10  C    1.289714
    11  N   -0.852585
    12  O   -0.458921
    13  H   -0.395783
    14  H   -0.305023
    15  H   -0.272326
    16  H   -0.414755
    17  H   -0.375662
    18  H   -0.445229
    19  H   -0.842855
    20  H   -1.108273
    21  H   -0.542384
    22  H   -0.581121
    23  H   -0.867892
    24  C    1.041419
    25  H    0.192231
    26  H    0.186679
    27  H    0.241593
    28  O   -0.383498
    29  H    0.190809
    30  H    0.185667
    31  H   -0.152420
    32  H   -0.120366
    33  H   -0.185896
 Sum of Mulliken charges =   1.00000

 Dipole moment (field-independent basis, Debye):
    X=             -3.6752    Y=             -0.7102    Z=              1.8487  Tot=              4.1748
 Quadrupole moment (field-independent basis, Debye-Ang):
   XX=            -50.2449   YY=            -59.0180   ZZ=            -75.3864
   XY=              0.3210   XZ=             -2.5390   YZ=             -2.4210

  Exact polarizability: 167.136  -3.824 139.245   3.592  -8.240 114.751
 Approx polarizability: 171.949  -0.104 161.440   3.317 -12.352 131.621

                      1                      2                      3
                      A                      A                      A
 Frequencies --     22.0235                43.6823                63.5797
 Red. masses --      3.1683                 4.3290                 4.0170
 Frc consts  --      0.0009                 0.0049                 0.0096
 IR Inten    --      0.4303                 0.8917                 0.2641

                      4                      5                      6
                      A                      A                      A
 Frequencies --     65.9116               102.4415               117.9540
 Red. masses --      3.8635                 3.2452                 3.7742
 Frc consts  --      0.0099                 0.0201                 0.0309
 IR Inten    --      0.7951                23.5899                14.9951

                      7                      8                      9
                      A                      A                      A
 Frequencies --    136.9701               180.3675               188.9715
 Red. masses --      1.3758                 3.5466                 2.0609
 Frc consts  --      0.0152                 0.0680                 0.0434
 IR Inten    --     28.5411                13.3552                23.2685

                     10                     11                     12
                      A                      A                      A
 Frequencies --    196.3897               209.6813               215.4470
 Red. masses --      2.6341                 1.6485                 2.1142
 Frc consts  --      0.0599                 0.0427                 0.0578
 IR Inten    --     21.9357                79.7491                48.1206

                     13                     14                     15
                      A                      A                      A
 Frequencies --    236.8439               266.4271               298.0600
 Red. masses --      1.0850                 3.3155                 4.7083
 Frc consts  --      0.0359                 0.1387                 0.2464
 IR Inten    --      2.1927                 1.4761                 8.2095

                     16                     17                     18
                      A                      A                      A
 Frequencies --    331.0763               384.9755               417.0438
 Red. masses --      4.1517                 2.9715                 2.6674
 Frc consts  --      0.2681                 0.2595                 0.2733
 IR Inten    --      0.9983                 1.6895                13.8959

                     19                     20                     21
                      A                      A                      A
 Frequencies --    436.2909               466.0012               541.2524
 Red. masses --      2.6763                 1.1557                 3.7867
 Frc consts  --      0.3001                 0.1479                 0.6536
 IR Inten    --      5.8679                67.5581                 5.8009

                     22                     23                     24
                      A                      A                      A
 Frequencies --    569.8188               585.3471               626.5480
 Red. masses --      2.9682                 1.1097                 2.9805
 Frc consts  --      0.5678                 0.2240                 0.6894
 IR Inten    --      6.2497                60.1312                 5.4900

                     25                     26                     27
                      A                      A                      A
 Frequencies --    644.9933               654.9315               670.9510
 Red. masses --      3.8606                 3.1191                 1.2691
 Frc consts  --      0.9463                 0.7883                 0.3366
 IR Inten    --      4.9145                19.5480                85.2081

                     28                     29                     30
                      A                      A                      A
 Frequencies --    742.2886               774.8675               789.7352
 Red. masses --      1.9656                 1.1480                 1.6837
 Frc consts  --      0.6381                 0.4061                 0.6187
 IR Inten    --     31.7442                70.8350                22.0896

                     31                     32                     33
                      A                      A                      A
 Frequencies --    832.8241               839.6115               916.2909
 Red. masses --      1.6707                 1.9732                 3.4292
 Frc consts  --      0.6827                 0.8195                 1.6963
 IR Inten    --     20.7980                 4.3494                 3.6797

                     34                     35                     36
                      A                      A                      A
 Frequencies --    924.1226               946.1871               977.9814
 Red. masses --      1.7642                 2.4491                 1.4339
 Frc consts  --      0.8877                 1.2919                 0.8080
 IR Inten    --      6.8768                 5.0055                 2.4076

                     37                     38                     39
                      A                      A                      A
 Frequencies --    982.2896               999.1460              1029.6861
 Red. masses --      1.7370                 1.5191                 1.4374
 Frc consts  --      0.9875                 0.8935                 0.8979
 IR Inten    --      4.3045                 4.4589                 0.4056

                     40                     41                     42
                      A                      A                      A
 Frequencies --   1043.5912              1050.5489              1066.4625
 Red. masses --      2.0097                 4.7607                 2.2334
 Frc consts  --      1.2896                 3.0956                 1.4966
 IR Inten    --     20.2295                 7.9266                 1.6867

                     43                     44                     45
                      A                      A                      A
 Frequencies --   1086.2980              1092.5482              1125.2459
 Red. masses --      2.0070                 2.2641                 1.3416
 Frc consts  --      1.3954                 1.5923                 1.0008
 IR Inten    --      1.8869                 1.9399                 4.1870

                     46                     47                     48
                      A                      A                      A
 Frequencies --   1149.1353              1153.0082              1207.5674
 Red. masses --      2.4767                 1.3865                 1.7454
 Frc consts  --      1.9269                 1.0860                 1.4996
 IR Inten    --     15.8311                 6.5814                 7.0402

                     49                     50                     51
                      A                      A                      A
 Frequencies --   1211.7402              1241.7774              1249.9498
 Red. masses --      1.4483                 1.5388                 1.4708
 Frc consts  --      1.2529                 1.3980                 1.3539
 IR Inten    --      3.2249                 7.9916                 5.4679

                     52                     53                     54
                      A                      A                      A
 Frequencies --   1260.4932              1268.1433              1310.7978
 Red. masses --      1.5686                 1.3051                 2.8616
 Frc consts  --      1.4684                 1.2366                 2.8969
 IR Inten    --      2.0414                 1.4588                 0.3984

                     55                     56                     57
                      A                      A                      A
 Frequencies --   1318.4146              1349.4322              1367.5907
 Red. masses --      1.5758                 1.3232                 1.3284
 Frc consts  --      1.6138                 1.4197                 1.4638
 IR Inten    --      0.5937                 1.1967                 2.0721

                     58                     59                     60
                      A                      A                      A
 Frequencies --   1372.2407              1380.2268              1399.1967
 Red. masses --      1.4333                 1.4062                 1.5694
 Frc consts  --      1.5901                 1.5783                 1.8102
 IR Inten    --      5.4786                 0.3105                 2.4942

                     61                     62                     63
                      A                      A                      A
 Frequencies --   1453.2787              1479.6318              1481.1445
 Red. masses --      1.1773                 1.0688                 2.1057
 Frc consts  --      1.4650                 1.3786                 2.7217
 IR Inten    --      2.5655                 3.3269                32.6562

                     64                     65                     66
                      A                      A                      A
 Frequencies --   1485.1417              1489.1719              1501.2810
 Red. masses --      1.0791                 1.0899                 1.0950
 Frc consts  --      1.4024                 1.4240                 1.4540
 IR Inten    --      2.3271                 4.3804                20.8240

                     67                     68                     69
                      A                      A                      A
 Frequencies --   1514.4638              1531.5500              1534.4212
 Red. masses --      1.1640                 1.6723                 1.3138
 Frc consts  --      1.5730                 2.3112                 1.8225
 IR Inten    --     23.5369                21.8580                11.2061

                     70                     71                     72
                      A                      A                      A
 Frequencies --   1553.3564              1634.9448              1662.6592
 Red. masses --      1.1862                 1.1059                 5.3242
 Frc consts  --      1.6863                 1.7417                 8.6719
 IR Inten    --     40.5338                84.6062                 9.5496

                     73                     74                     75
                      A                      A                      A
 Frequencies --   1683.9192              1701.7001              3045.8414
 Red. masses --      5.7339                 1.0843                 1.0825
 Frc consts  --      9.5794                 1.8499                 5.9171
 IR Inten    --     12.7875                84.6638               769.3044

                     76                     77                     78
                      A                      A                      A
 Frequencies --   3082.3389              3093.5734              3100.8495
 Red. masses --      1.0369                 1.0715                 1.0687
 Frc consts  --      5.8042                 6.0417                 6.0542
 IR Inten    --     23.7815                10.8150                17.2465

                     79                     80                     81
                      A                      A                      A
 Frequencies --   3101.2343              3115.7213              3160.8308
 Red. masses --      1.0733                 1.0637                 1.1041
 Frc consts  --      6.0821                 6.0840                 6.4992
 IR Inten    --     22.7582                 5.0330                 0.9254

                     82                     83                     84
                      A                      A                      A
 Frequencies --   3168.6595              3176.8162              3185.3952
 Red. masses --      1.1066                 1.1066                 1.1071
 Frc consts  --      6.5461                 6.5798                 6.6187
 IR Inten    --      3.5662                 6.9647                 0.4118

                     85                     86                     87
                      A                      A                      A
 Frequencies --   3186.1114              3192.5473              3200.1866
 Red. masses --      1.0917                 1.1070                 1.0917
 Frc consts  --      6.5297                 6.6479                 6.5875
 IR Inten    --      4.3967                 0.9436                 2.8307

                     88                     89                     90
                      A                      A                      A
 Frequencies --   3212.4910              3238.9677              3435.3964
 Red. masses --      1.0924                 1.0984                 1.0639
 Frc consts  --      6.6422                 6.7890                 7.3980
 IR Inten    --      3.5915                 1.0406               696.7688

                     91                     92                     93
                      A                      A                      A
 Frequencies --   3627.3579              3939.5518              3954.4113
 Red. masses --      1.0602                 1.0672                 1.0703
 Frc consts  --      8.2189                 9.7583                 9.8613
 IR Inten    --    523.7747                94.7845               164.0418

 - Thermochemistry -
 -------------------
 Temperature   298.150 Kelvin.  Pressure   1.00000 Atm.
 Atom     1 has atomic number  6 and mass  12.00000

 Molecular mass:   199.14465 amu.
 Principal axes and moments of inertia in atomic units:
                           1         2         3
     Eigenvalues --  2217.563533538.989534527.82361
           X            0.99992   0.01232   0.00190
           Y           -0.01229   0.99983  -0.01378
           Z           -0.00207   0.01376   0.99990
 This molecule is an asymmetric top.
 Rotational symmetry number  1.
 Warning -- assumption of classical behavior for rotation
           may cause significant error
 Rotational temperatures (Kelvin)      0.03906     0.02447     0.01913
 Rotational constants (GHZ):           0.81384     0.50996     0.39859
 Zero-point vibrational energy     771940.5 (Joules/Mol)
                                  184.49820 (Kcal/Mol)
 Warning -- explicit consideration of  23 degrees of freedom as
           vibrations may cause significant error
 Vibrational temperatures:     31.69    62.85    91.48    94.83   147.39
          (Kelvin)            169.71   197.07   259.51   271.89   282.56
                              301.68   309.98   340.77   383.33   428.84
                              476.34   553.89   600.03   627.73   670.47
                              778.74   819.84   842.18   901.46   928.00
                              942.30   965.35  1067.99  1114.86  1136.25
                             1198.25  1208.01  1318.34  1329.61  1361.35
                             1407.10  1413.30  1437.55  1481.49  1501.49
                             1511.51  1534.40  1562.94  1571.93  1618.98
                             1653.35  1658.92  1737.42  1743.42  1786.64
                             1798.40  1813.57  1824.58  1885.95  1896.90
                             1941.53  1967.66  1974.35  1985.84  2013.13
                             2090.94  2128.86  2131.04  2136.79  2142.59
                             2160.01  2178.98  2203.56  2207.69  2234.93
                             2352.32  2392.20  2422.78  2448.37  4382.29
                             4434.80  4450.96  4461.43  4461.98  4482.83
                             4547.73  4558.99  4570.73  4583.07  4584.10
                             4593.36  4604.35  4622.06  4660.15  4942.77
                             5218.96  5668.14  5689.52

 Zero-point correction=                           0.294017 (Hartree/Particle)
 Thermal correction to Energy=                    0.310224
 Thermal correction to Enthalpy=                  0.311169
 Thermal correction to Gibbs Free Energy=         0.249630
 Sum of electronic and zero-point Energies=           -651.866965
 Sum of electronic and thermal Energies=              -651.850757
 Sum of electronic and thermal Enthalpies=            -651.849813
 Sum of electronic and thermal Free Energies=         -651.911352

                     E (Thermal)             CV                S
                      KCal/Mol        Cal/Mol-Kelvin    Cal/Mol-Kelvin
 Total                  194.669             59.721            129.520
 Electronic               0.000              0.000              0.000
 Translational            0.889              2.981             41.771
 Rotational               0.889              2.981             31.941
 Vibrational            192.891             53.759             55.807
 Vibration     1          0.593              1.985              6.443
 Vibration     2          0.595              1.980              5.085
 Vibration     3          0.597              1.972              4.343
 Vibration     4          0.597              1.971              4.272
 Vibration     5          0.605              1.947              3.407
 Vibration     6          0.608              1.934              3.134
 Vibration     7          0.614              1.916              2.846
 Vibration     8          0.629              1.866              2.325
 Vibration     9          0.633              1.855              2.238
 Vibration    10          0.636              1.845              2.167
 Vibration    11          0.642              1.826              2.046
 Vibration    12          0.645              1.817              1.997
 Vibration    13          0.656              1.784              1.826
 Vibration    14          0.672              1.735              1.619
 Vibration    15          0.691              1.677              1.428
 Vibration    16          0.713              1.613              1.255
 Vibration    17          0.754              1.502              1.020
 Vibration    18          0.780              1.433              0.902
 Vibration    19          0.797              1.391              0.838
 Vibration    20          0.823              1.325              0.749
 Vibration    21          0.896              1.159              0.563
 Vibration    22          0.926              1.097              0.505
 Vibration    23          0.942              1.063              0.476

 Optimization completed.
    -- Stationary point found.
 Normal termination of Gaussian 16 at Tue Jul 21 10:17:36 2020.
