 Gaussian 16, Revision A.03,
 Gaussian 16:  ES64L-G16RevA.03 25-Dec-2016

 -----------------------------------------
 # wB97XD/aug-cc-pVDZ Temperature=130 Freq
 -----------------------------------------

 ---------------------------
 p-Pyr Nicotine, N syn, 2H2O
 ---------------------------
 Symbolic Z-matrix:
 Charge =  1 Multiplicity = 1

                         Standard orientation:
 ---------------------------------------------------------------------
 Center     Atomic      Atomic             Coordinates (Angstroms)
 Number     Number       Type             X           Y           Z
 ---------------------------------------------------------------------
      1          6           0        1.297585   -0.013721    0.606607
      2          6           0        0.356325   -1.002270    0.323547
      3          6           0        0.839597   -2.222493   -0.154742
      4          6           0        2.207708   -2.383746   -0.343074
      5          6           0        3.053598   -1.309880   -0.074627
      6          7           0        2.607030   -0.140601    0.390446
      7          6           0       -1.121104   -0.764270    0.548863
      8          6           0       -2.079838   -1.637001   -0.268670
      9          6           0       -3.334550   -0.776124   -0.399099
     10          6           0       -2.745212    0.598124   -0.675755
     11          7           0       -1.528682    0.673935    0.215226
     12          8           0        0.152376    2.343183   -1.123772
     13          1           0       -3.402916    1.443934   -0.458237
     14          1           0       -3.913745   -0.774290    0.533944
     15          1           0       -3.996776   -1.102258   -1.206641
     16          1           0       -1.656734   -1.838438   -1.262015
     17          1           0       -2.261829   -2.595474    0.227347
     18          1           0       -2.392010    0.677020   -1.710239
     19          1           0       -1.351810   -0.885883    1.615428
     20          1           0        0.997452    0.955460    1.008186
     21          1           0        4.128080   -1.389456   -0.240788
     22          1           0        2.614841   -3.323588   -0.710685
     23          1           0        0.164112   -3.046569   -0.381578
     24          6           0       -1.774121    1.498529    1.427480
     25          1           0       -0.783226    1.166184   -0.329602
     26          1           0        1.075196    2.525644   -0.833402
     27          1           0        0.050096    2.751240   -1.985957
     28          8           0        2.614172    2.616972   -0.071363
     29          1           0        3.017582    1.748274    0.113844
     30          1           0        3.323209    3.257536   -0.154572
     31          1           0       -0.904088    1.439172    2.087581
     32          1           0       -2.659093    1.118323    1.948194
     33          1           0       -1.929098    2.535715    1.117399
 ---------------------------------------------------------------------

 SCF Done:  E(RwB97XD) =  -652.155946677     A.U. after   14 cycles

 The electronic state is 1-A.
 Alpha  occ. eigenvalues --  -19.40137 -19.38791 -14.69600 -14.58508 -10.50608
 Alpha  occ. eigenvalues --  -10.49196 -10.48838 -10.46927 -10.46211 -10.45746
 Alpha  occ. eigenvalues --  -10.45177 -10.44892 -10.44801 -10.43560  -1.25836
 Alpha  occ. eigenvalues --   -1.24387  -1.22745  -1.18347  -1.07345  -1.05097
 Alpha  occ. eigenvalues --   -1.01615  -0.97614  -0.95676  -0.88131  -0.87075
 Alpha  occ. eigenvalues --   -0.84900  -0.83748  -0.79156  -0.76155  -0.75899
 Alpha  occ. eigenvalues --   -0.74518  -0.73142  -0.72167  -0.70787  -0.69512
 Alpha  occ. eigenvalues --   -0.67231  -0.66686  -0.65165  -0.64698  -0.63506
 Alpha  occ. eigenvalues --   -0.62286  -0.61889  -0.61138  -0.60106  -0.59019
 Alpha  occ. eigenvalues --   -0.58630  -0.58570  -0.57382  -0.56565  -0.53905
 Alpha  occ. eigenvalues --   -0.52134  -0.49854  -0.48025  -0.46822
 Alpha virt. eigenvalues --   -0.09737  -0.08784  -0.06972  -0.05934  -0.05296
 Alpha virt. eigenvalues --   -0.04976  -0.03606  -0.03563  -0.03317  -0.02971
 Alpha virt. eigenvalues --   -0.02538  -0.01570  -0.01258  -0.01056  -0.00549

 Mulliken charges:
               1
     1  C    0.486358
     2  C    1.386110
     3  C    1.102503
     4  C    0.561567
     5  C    0.104858
     6  N   -0.336937
     7  C    0.954451
     8  C    0.682768
     9  C    0.819102
    10  C    1.021607
    11  N   -0.020680
    12  O   -0.551387
    13  H   -0.397067
    14  H   -0.204239
    15  H   -0.253315
    16  H   -0.407680
    17  H   -0.383051
    18  H   -0.454901
    19  H   -0.437098
    20  H   -1.229840
    21  H   -0.552761
    22  H   -0.595297
    23  H   -0.866729
    24  C    0.594475
    25  H    0.091586
    26  H    0.276782
    27  H    0.193102
    28  O   -0.412515
    29  H    0.203608
    30  H    0.198125
    31  H   -0.180502
    32  H   -0.152938
    33  H   -0.240067
 Sum of Mulliken charges =   1.00000

 Dipole moment (field-independent basis, Debye):
    X=             -3.6484    Y=              0.5742    Z=             -0.7474  Tot=              3.7682
 Quadrupole moment (field-independent basis, Debye-Ang):
   XX=            -47.2589   YY=            -59.7947   ZZ=            -76.3921
   XY=              0.0758   XZ=             -3.7708   YZ=             -0.8185

  Exact polarizability: 167.766  -3.491 147.463  -1.774   8.661 106.192
 Approx polarizability: 171.548  -0.150 163.439  -3.409  11.093 129.753

                      1                      2                      3
                      A                      A                      A
 Frequencies --     33.4303                54.2868                63.6476
 Red. masses --      3.5483                 4.0509                 4.7974
 Frc consts  --      0.0023                 0.0070                 0.0115
 IR Inten    --      0.7496                 0.4604                 0.6727

                      4                      5                      6
                      A                      A                      A
 Frequencies --     98.5557               105.7900               147.3611
 Red. masses --      4.6644                 3.0109                 2.5765
 Frc consts  --      0.0267                 0.0199                 0.0330
 IR Inten    --      3.4999                 6.4217                20.3176

                      7                      8                      9
                      A                      A                      A
 Frequencies --    160.1463               166.2124               184.8184
 Red. masses --      1.3572                 3.6543                 3.8186
 Frc consts  --      0.0205                 0.0595                 0.0768
 IR Inten    --     35.6416                 4.9469                17.1635

                     10                     11                     12
                      A                      A                      A
 Frequencies --    209.3319               216.7984               252.1451
 Red. masses --      2.3419                 1.6353                 2.2460
 Frc consts  --      0.0605                 0.0453                 0.0841
 IR Inten    --     61.5409               121.4089                 0.6830

                     13                     14                     15
                      A                      A                      A
 Frequencies --    277.0597               294.7632               311.1749
 Red. masses --      1.1562                 4.5059                 2.7318
 Frc consts  --      0.0523                 0.2307                 0.1559
 IR Inten    --      0.4061                 8.8558                 0.8085

                     16                     17                     18
                      A                      A                      A
 Frequencies --    322.2019               405.1133               417.6771
 Red. masses --      3.0810                 3.0625                 3.1469
 Frc consts  --      0.1884                 0.2961                 0.3235
 IR Inten    --      3.9240                 1.5602                 6.5183

                     19                     20                     21
                      A                      A                      A
 Frequencies --    451.3780               477.1848               494.1631
 Red. masses --      2.7073                 2.3765                 1.2316
 Frc consts  --      0.3250                 0.3188                 0.1772
 IR Inten    --      1.8967                13.7729                82.3552

                     22                     23                     24
                      A                      A                      A
 Frequencies --    571.2371               573.3952               619.4991
 Red. masses --      1.8762                 1.1552                 1.8669
 Frc consts  --      0.3607                 0.2238                 0.4221
 IR Inten    --     17.3434                42.3435                24.9404

                     25                     26                     27
                      A                      A                      A
 Frequencies --    627.3338               644.8831               686.8126
 Red. masses --      1.5199                 4.0007                 5.0341
 Frc consts  --      0.3524                 0.9803                 1.3991
 IR Inten    --     28.8346                11.8926                 5.0382

                     28                     29                     30
                      A                      A                      A
 Frequencies --    736.4701               798.7502               806.8188
 Red. masses --      2.0329                 1.2927                 1.5707
 Frc consts  --      0.6496                 0.4859                 0.6024
 IR Inten    --     36.9246                75.4025                70.6471

                     31                     32                     33
                      A                      A                      A
 Frequencies --    837.0082               857.8690               883.6810
 Red. masses --      1.7304                 2.2646                 2.7870
 Frc consts  --      0.7143                 0.9820                 1.2823
 IR Inten    --      9.3679                 6.0187                 0.3299

                     34                     35                     36
                      A                      A                      A
 Frequencies --    926.9223               947.1534               964.0416
 Red. masses --      1.6127                 2.2414                 1.5718
 Frc consts  --      0.8164                 1.1847                 0.8607
 IR Inten    --      3.7701                 2.1581                 4.7090

                     37                     38                     39
                      A                      A                      A
 Frequencies --    970.6787               994.7745              1027.9240
 Red. masses --      1.8405                 1.4025                 1.4257
 Frc consts  --      1.0217                 0.8177                 0.8876
 IR Inten    --      6.9654                 0.7361                 0.2191

                     40                     41                     42
                      A                      A                      A
 Frequencies --   1033.5936              1047.5259              1051.4121
 Red. masses --      2.1924                 2.5929                 3.8303
 Frc consts  --      1.3800                 1.6763                 2.4948
 IR Inten    --     14.0156                 7.9452                12.2932

                     43                     44                     45
                      A                      A                      A
 Frequencies --   1080.3024              1091.7885              1115.2534
 Red. masses --      1.7483                 2.2867                 2.0013
 Frc consts  --      1.2021                 1.6059                 1.4666
 IR Inten    --     13.2760                 3.3720                 1.0172

                     46                     47                     48
                      A                      A                      A
 Frequencies --   1145.3547              1168.6627              1200.4008
 Red. masses --      1.4685                 1.4286                 1.4243
 Frc consts  --      1.1350                 1.1496                 1.2092
 IR Inten    --      2.5256                 9.3803                 1.0955

                     49                     50                     51
                      A                      A                      A
 Frequencies --   1210.8949              1229.9639              1245.1570
 Red. masses --      1.7031                 1.6629                 1.5367
 Frc consts  --      1.4713                 1.4822                 1.4037
 IR Inten    --      2.4324                 9.7371                 0.0676

                     52                     53                     54
                      A                      A                      A
 Frequencies --   1268.6183              1301.6057              1309.6069
 Red. masses --      1.6296                 1.4621                 2.2083
 Frc consts  --      1.5452                 1.4594                 2.2315
 IR Inten    --      3.8339                 4.5175                 0.5985

                     55                     56                     57
                      A                      A                      A
 Frequencies --   1317.7201              1344.4686              1364.6121
 Red. masses --      1.8260                 1.4797                 1.4009
 Frc consts  --      1.8681                 1.5759                 1.5370
 IR Inten    --      1.2144                 3.3934                 5.1961

                     58                     59                     60
                      A                      A                      A
 Frequencies --   1372.9141              1389.9056              1394.5991
 Red. masses --      1.3216                 1.3511                 1.2843
 Frc consts  --      1.4677                 1.5378                 1.4717
 IR Inten    --      3.3090                 6.6519                 3.9949

                     61                     62                     63
                      A                      A                      A
 Frequencies --   1458.5995              1467.5382              1480.1161
 Red. masses --      1.1807                 1.5510                 1.5758
 Frc consts  --      1.4800                 1.9680                 2.0340
 IR Inten    --     11.5045                54.1701                 0.9909

                     64                     65                     66
                      A                      A                      A
 Frequencies --   1485.4735              1488.4234              1497.4636
 Red. masses --      1.0672                 1.0795                 1.1123
 Frc consts  --      1.3875                 1.4091                 1.4695
 IR Inten    --      2.2936                14.1278                 4.8755

                     67                     68                     69
                      A                      A                      A
 Frequencies --   1500.1598              1515.6620              1535.9931
 Red. masses --      1.1056                 1.1090                 2.1799
 Frc consts  --      1.4660                 1.5010                 3.0302
 IR Inten    --     38.1234                12.4184                23.4739

                     70                     71                     72
                      A                      A                      A
 Frequencies --   1561.0770              1642.9087              1660.7590
 Red. masses --      1.1451                 1.1999                 3.7813
 Frc consts  --      1.6441                 1.9082                 6.1448
 IR Inten    --     10.5483               130.0482                 6.0309

                     73                     74                     75
                      A                      A                      A
 Frequencies --   1682.3346              1685.3353              3076.6194
 Red. masses --      1.5229                 2.2699                 1.0704
 Frc consts  --      2.5395                 3.7987                 5.9694
 IR Inten    --     26.9686                37.1453               305.5395

                     76                     77                     78
                      A                      A                      A
 Frequencies --   3079.4341              3087.3040              3090.1942
 Red. masses --      1.0598                 1.0721                 1.0650
 Frc consts  --      5.9213                 6.0208                 5.9918
 IR Inten    --    135.9092                18.5367               120.0914

                     79                     80                     81
                      A                      A                      A
 Frequencies --   3096.2309              3107.9141              3160.8013
 Red. masses --      1.0670                 1.0631                 1.1010
 Frc consts  --      6.0266                 6.0502                 6.4807
 IR Inten    --    258.6000                40.7261                 1.8958

                     82                     83                     84
                      A                      A                      A
 Frequencies --   3167.4879              3180.0321              3188.3280
 Red. masses --      1.1023                 1.1088                 1.1017
 Frc consts  --      6.5160                 6.6063                 6.5986
 IR Inten    --      4.6015                 2.8333                 5.8897

                     85                     86                     87
                      A                      A                      A
 Frequencies --   3193.0609              3200.5697              3210.8362
 Red. masses --      1.0986                 1.1054                 1.0906
 Frc consts  --      6.5995                 6.6717                 6.6247
 IR Inten    --      5.4649                 0.3949                 2.5271

                     88                     89                     90
                      A                      A                      A
 Frequencies --   3218.1746              3239.9918              3455.2353
 Red. masses --      1.0924                 1.0989                 1.0635
 Frc consts  --      6.6655                 6.7966                 7.4806
 IR Inten    --      2.9928                 1.1656               642.9470

                     91                     92                     93
                      A                      A                      A
 Frequencies --   3621.4540              3947.0162              3956.6098
 Red. masses --      1.0602                 1.0676                 1.0703
 Frc consts  --      8.1925                 9.7994                 9.8719
 IR Inten    --    532.1869                98.5718               164.8187

 - Thermochemistry -
 -------------------
 Temperature   130.000 Kelvin.  Pressure   1.00000 Atm.
 Atom     1 has atomic number  6 and mass  12.00000

 Molecular mass:   199.14465 amu.
 Principal axes and moments of inertia in atomic units:
                           1         2         3
     Eigenvalues --  2183.152923485.471105011.51350
           X            0.99986   0.01569  -0.00524
           Y           -0.01564   0.99984   0.00909
           Z            0.00538  -0.00901   0.99994
 This molecule is an asymmetric top.
 Rotational symmetry number  1.
 Warning -- assumption of classical behavior for rotation
           may cause significant error
 Rotational temperatures (Kelvin)      0.03967     0.02485     0.01728
 Rotational constants (GHZ):           0.82667     0.51779     0.36012
 Zero-point vibrational energy     773038.8 (Joules/Mol)
                                  184.76070 (Kcal/Mol)
 Warning -- explicit consideration of  12 degrees of freedom as
           vibrations may cause significant error
 Vibrational temperatures:     48.10    78.11    91.57   141.80   152.21
          (Kelvin)            212.02   230.41   239.14   265.91   301.18
                              311.92   362.78   398.63   424.10   447.71
                              463.58   582.87   600.94   649.43   686.56
                              710.99   821.88   824.99   891.32   902.59
                              927.84   988.17  1059.62  1149.22  1160.83
                             1204.27  1234.28  1271.42  1333.63  1362.74
                             1387.04  1396.59  1431.26  1478.95  1487.11
                             1507.16  1512.75  1554.31  1570.84  1604.60
                             1647.91  1681.45  1727.11  1742.21  1769.64
                             1791.50  1825.26  1872.72  1884.23  1895.91
                             1934.39  1963.37  1975.32  1999.76  2006.52
                             2098.60  2111.46  2129.56  2137.26  2141.51
                             2154.52  2158.40  2180.70  2209.95  2246.04
                             2363.78  2389.46  2420.50  2424.82  4426.57
                             4430.62  4441.94  4446.10  4454.79  4471.60
                             4547.69  4557.31  4575.36  4587.29  4594.10
                             4604.91  4619.68  4630.24  4661.63  4971.31
                             5210.46  5678.88  5692.68

 Zero-point correction=                           0.294435 (Hartree/Particle)
 Thermal correction to Energy=                    0.298199
 Thermal correction to Enthalpy=                  0.298611
 Thermal correction to Gibbs Free Energy=         0.280269
 Sum of electronic and zero-point Energies=           -651.861512
 Sum of electronic and thermal Energies=              -651.857748
 Sum of electronic and thermal Enthalpies=            -651.857336
 Sum of electronic and thermal Free Energies=         -651.875678

                     E (Thermal)             CV                S
                      KCal/Mol        Cal/Mol-Kelvin    Cal/Mol-Kelvin
 Total                  187.123             30.977             88.537
 Electronic               0.000              0.000              0.000
 Translational            0.388              2.981             37.648
 Rotational               0.388              2.981             29.537
 Vibrational            186.348             25.015             21.352
 Vibration     1          0.261              1.965              3.974
 Vibration     2          0.266              1.928              3.029
 Vibration     3          0.269              1.907              2.724
 Vibration     4          0.283              1.801              1.910
 Vibration     5          0.287              1.775              1.784
 Vibration     6          0.313              1.600              1.222
 Vibration     7          0.323              1.540              1.091
 Vibration     8          0.327              1.510              1.034
 Vibration     9          0.343              1.418              0.879
 Vibration    10          0.365              1.294              0.710
 Vibration    11          0.372              1.256              0.665
 Vibration    12          0.408              1.078              0.489

 Optimization completed.
    -- Stationary point found.
 Normal termination of Gaussian 16 at Wed Aug 26 19:53:25 2020.
